V -t * -v 1.0a5 -a 0
A -t * -n 1 -p 0 -o 255 -c 30 -a 1
A -t * -h 1 -m 4194303 -s 8
n -t * -a 8 -s 8 -S UP -v circle -c black
n -t * -a 4 -s 4 -S UP -v circle -c black
n -t * -a 0 -s 0 -S UP -v circle -c black
n -t * -a 5 -s 5 -S UP -v circle -c black
n -t * -a 1 -s 1 -S UP -v circle -c black
n -t * -a 6 -s 6 -S UP -v circle -c black
n -t * -a 2 -s 2 -S UP -v circle -c black
n -t * -a 7 -s 7 -S UP -v circle -c black
n -t * -a 3 -s 3 -S UP -v circle -c black
l -t * -s 0 -d 8 -S UP -r 1500000 -D 0.01 -c black -o right
l -t * -s 1 -d 0 -S UP -r 1500000 -D 0.01 -c black -o 80deg
l -t * -s 1 -d 7 -S UP -r 1500000 -D 0.01 -c black -o left
l -t * -s 3 -d 0 -S UP -r 1500000 -D 0.01 -c black -o 100deg
l -t * -s 2 -d 5 -S UP -r 1500000 -D 0.01 -c black -o left
l -t * -s 4 -d 6 -S UP -r 1500000 -D 0.01 -c black -o right
X -t * -n 9 -r 2Mb -D 10ms -o left
L -t * -s 9 -d 1 -o up
L -t * -s 9 -d 2 -o down
L -t * -s 9 -d 3 -o up
L -t * -s 9 -d 4 -o down
+ -t 0.1 -s 5 -d 2 -p cbr -e 210 -c 0 -i 0 -a 0 -x {5.1 4194304.1 0 ------- null}
- -t 0.1 -s 5 -d 2 -p cbr -e 210 -c 0 -i 0 -a 0 -x {5.1 4194304.1 0 ------- null}
h -t 0.1 -s 5 -d 2 -p cbr -e 210 -c 0 -i 0 -a 0 -x {5.1 4194304.1 -1 ------- null}
r -t 0.11112 -s 5 -d 2 -p cbr -e 210 -c 0 -i 0 -a 0 -x {5.1 4194304.1 0 ------- null}
h -t 0.11112 -s 2 -d 9 -p cbr -e 210 -c 0 -i 0 -a 0 -x {5.1 4194304.1 0 ------- null}
+ -t 0.12 -s 5 -d 2 -p cbr -e 210 -c 0 -i 1 -a 0 -x {5.1 4194304.1 1 ------- null}
- -t 0.12 -s 5 -d 2 -p cbr -e 210 -c 0 -i 1 -a 0 -x {5.1 4194304.1 1 ------- null}
h -t 0.12 -s 5 -d 2 -p cbr -e 210 -c 0 -i 1 -a 0 -x {5.1 4194304.1 -1 ------- null}
r -t 0.13112 -s 5 -d 2 -p cbr -e 210 -c 0 -i 1 -a 0 -x {5.1 4194304.1 1 ------- null}
h -t 0.13112 -s 2 -d 9 -p cbr -e 210 -c 0 -i 1 -a 0 -x {5.1 4194304.1 1 ------- null}
r -t 0.131124 -s 9 -d 4 -p cbr -e 210 -c 0 -i 0 -a 0 -x {5.1 4194304.1 0 ------- null}
r -t 0.131124 -s 9 -d 3 -p cbr -e 210 -c 0 -i 0 -a 0 -x {5.1 4194304.1 0 ------- null}
r -t 0.131124 -s 9 -d 1 -p cbr -e 210 -c 0 -i 0 -a 0 -x {5.1 4194304.1 0 ------- null}
+ -t 0.131124 -s 1 -d 0 -p cbr -e 210 -c 0 -i 0 -a 0 -x {5.1 4194304.1 0 ------- null}
- -t 0.131124 -s 1 -d 0 -p cbr -e 210 -c 0 -i 0 -a 0 -x {5.1 4194304.1 0 ------- null}
h -t 0.131124 -s 1 -d 0 -p cbr -e 210 -c 0 -i 0 -a 0 -x {5.1 4194304.1 -1 ------- null}
+ -t 0.14 -s 5 -d 2 -p cbr -e 210 -c 0 -i 2 -a 0 -x {5.1 4194304.1 2 ------- null}
- -t 0.14 -s 5 -d 2 -p cbr -e 210 -c 0 -i 2 -a 0 -x {5.1 4194304.1 2 ------- null}
h -t 0.14 -s 5 -d 2 -p cbr -e 210 -c 0 -i 2 -a 0 -x {5.1 4194304.1 -1 ------- null}
r -t 0.142244 -s 1 -d 0 -p cbr -e 210 -c 0 -i 0 -a 0 -x {5.1 4194304.1 0 ------- null}
r -t 0.15112 -s 5 -d 2 -p cbr -e 210 -c 0 -i 2 -a 0 -x {5.1 4194304.1 2 ------- null}
h -t 0.15112 -s 2 -d 9 -p cbr -e 210 -c 0 -i 2 -a 0 -x {5.1 4194304.1 2 ------- null}
r -t 0.151124 -s 9 -d 4 -p cbr -e 210 -c 0 -i 1 -a 0 -x {5.1 4194304.1 1 ------- null}
r -t 0.151124 -s 9 -d 3 -p cbr -e 210 -c 0 -i 1 -a 0 -x {5.1 4194304.1 1 ------- null}
r -t 0.151124 -s 9 -d 1 -p cbr -e 210 -c 0 -i 1 -a 0 -x {5.1 4194304.1 1 ------- null}
+ -t 0.151124 -s 1 -d 0 -p cbr -e 210 -c 0 -i 1 -a 0 -x {5.1 4194304.1 1 ------- null}
- -t 0.151124 -s 1 -d 0 -p cbr -e 210 -c 0 -i 1 -a 0 -x {5.1 4194304.1 1 ------- null}
h -t 0.151124 -s 1 -d 0 -p cbr -e 210 -c 0 -i 1 -a 0 -x {5.1 4194304.1 -1 ------- null}
+ -t 0.16 -s 5 -d 2 -p cbr -e 210 -c 0 -i 3 -a 0 -x {5.1 4194304.1 3 ------- null}
- -t 0.16 -s 5 -d 2 -p cbr -e 210 -c 0 -i 3 -a 0 -x {5.1 4194304.1 3 ------- null}
h -t 0.16 -s 5 -d 2 -p cbr -e 210 -c 0 -i 3 -a 0 -x {5.1 4194304.1 -1 ------- null}
r -t 0.162244 -s 1 -d 0 -p cbr -e 210 -c 0 -i 1 -a 0 -x {5.1 4194304.1 1 ------- null}
r -t 0.17112 -s 5 -d 2 -p cbr -e 210 -c 0 -i 3 -a 0 -x {5.1 4194304.1 3 ------- null}
h -t 0.17112 -s 2 -d 9 -p cbr -e 210 -c 0 -i 3 -a 0 -x {5.1 4194304.1 3 ------- null}
r -t 0.171124 -s 9 -d 4 -p cbr -e 210 -c 0 -i 2 -a 0 -x {5.1 4194304.1 2 ------- null}
r -t 0.171124 -s 9 -d 3 -p cbr -e 210 -c 0 -i 2 -a 0 -x {5.1 4194304.1 2 ------- null}
r -t 0.171124 -s 9 -d 1 -p cbr -e 210 -c 0 -i 2 -a 0 -x {5.1 4194304.1 2 ------- null}
+ -t 0.171124 -s 1 -d 0 -p cbr -e 210 -c 0 -i 2 -a 0 -x {5.1 4194304.1 2 ------- null}
- -t 0.171124 -s 1 -d 0 -p cbr -e 210 -c 0 -i 2 -a 0 -x {5.1 4194304.1 2 ------- null}
h -t 0.171124 -s 1 -d 0 -p cbr -e 210 -c 0 -i 2 -a 0 -x {5.1 4194304.1 -1 ------- null}
+ -t 0.18 -s 5 -d 2 -p cbr -e 210 -c 0 -i 4 -a 0 -x {5.1 4194304.1 4 ------- null}
- -t 0.18 -s 5 -d 2 -p cbr -e 210 -c 0 -i 4 -a 0 -x {5.1 4194304.1 4 ------- null}
h -t 0.18 -s 5 -d 2 -p cbr -e 210 -c 0 -i 4 -a 0 -x {5.1 4194304.1 -1 ------- null}
r -t 0.182244 -s 1 -d 0 -p cbr -e 210 -c 0 -i 2 -a 0 -x {5.1 4194304.1 2 ------- null}
r -t 0.19112 -s 5 -d 2 -p cbr -e 210 -c 0 -i 4 -a 0 -x {5.1 4194304.1 4 ------- null}
h -t 0.19112 -s 2 -d 9 -p cbr -e 210 -c 0 -i 4 -a 0 -x {5.1 4194304.1 4 ------- null}
r -t 0.191124 -s 9 -d 4 -p cbr -e 210 -c 0 -i 3 -a 0 -x {5.1 4194304.1 3 ------- null}
r -t 0.191124 -s 9 -d 3 -p cbr -e 210 -c 0 -i 3 -a 0 -x {5.1 4194304.1 3 ------- null}
r -t 0.191124 -s 9 -d 1 -p cbr -e 210 -c 0 -i 3 -a 0 -x {5.1 4194304.1 3 ------- null}
+ -t 0.191124 -s 1 -d 0 -p cbr -e 210 -c 0 -i 3 -a 0 -x {5.1 4194304.1 3 ------- null}
- -t 0.191124 -s 1 -d 0 -p cbr -e 210 -c 0 -i 3 -a 0 -x {5.1 4194304.1 3 ------- null}
h -t 0.191124 -s 1 -d 0 -p cbr -e 210 -c 0 -i 3 -a 0 -x {5.1 4194304.1 -1 ------- null}
+ -t 0.2 -s 5 -d 2 -p cbr -e 210 -c 0 -i 5 -a 0 -x {5.1 4194304.1 5 ------- null}
- -t 0.2 -s 5 -d 2 -p cbr -e 210 -c 0 -i 5 -a 0 -x {5.1 4194304.1 5 ------- null}
h -t 0.2 -s 5 -d 2 -p cbr -e 210 -c 0 -i 5 -a 0 -x {5.1 4194304.1 -1 ------- null}
m -t 0.20000000000000001 -s 6 -n m1 -c blue -h circle
+ -t 0.2 -s 6 -d 4 -p graft -e 80 -c 3 -i 6 -a 3 -x {6.0 4.0 -1 ------- null}
- -t 0.2 -s 6 -d 4 -p graft -e 80 -c 3 -i 6 -a 3 -x {6.0 4.0 -1 ------- null}
h -t 0.2 -s 6 -d 4 -p graft -e 80 -c 3 -i 6 -a 3 -x {6.0 4.0 -1 ------- null}
r -t 0.202244 -s 1 -d 0 -p cbr -e 210 -c 0 -i 3 -a 0 -x {5.1 4194304.1 3 ------- null}
r -t 0.210427 -s 6 -d 4 -p graft -e 80 -c 3 -i 6 -a 3 -x {6.0 4.0 -1 ------- null}
m -t 0.21042666666666668 -s 4 -n m2 -c red -h circle
h -t 0.210427 -s 4 -d 9 -p graft -e 80 -c 3 -i 7 -a 3 -x {4.0 1.0 -1 ------- null}
r -t 0.21112 -s 5 -d 2 -p cbr -e 210 -c 0 -i 5 -a 0 -x {5.1 4194304.1 5 ------- null}
h -t 0.21112 -s 2 -d 9 -p cbr -e 210 -c 0 -i 5 -a 0 -x {5.1 4194304.1 5 ------- null}
r -t 0.211124 -s 9 -d 4 -p cbr -e 210 -c 0 -i 4 -a 0 -x {5.1 4194304.1 4 ------- null}
r -t 0.211124 -s 9 -d 3 -p cbr -e 210 -c 0 -i 4 -a 0 -x {5.1 4194304.1 4 ------- null}
r -t 0.211124 -s 9 -d 1 -p cbr -e 210 -c 0 -i 4 -a 0 -x {5.1 4194304.1 4 ------- null}
+ -t 0.211124 -s 1 -d 0 -p cbr -e 210 -c 0 -i 4 -a 0 -x {5.1 4194304.1 4 ------- null}
- -t 0.211124 -s 1 -d 0 -p cbr -e 210 -c 0 -i 4 -a 0 -x {5.1 4194304.1 4 ------- null}
h -t 0.211124 -s 1 -d 0 -p cbr -e 210 -c 0 -i 4 -a 0 -x {5.1 4194304.1 -1 ------- null}
+ -t 0.22 -s 5 -d 2 -p cbr -e 210 -c 0 -i 8 -a 0 -x {5.1 4194304.1 6 ------- null}
- -t 0.22 -s 5 -d 2 -p cbr -e 210 -c 0 -i 8 -a 0 -x {5.1 4194304.1 6 ------- null}
h -t 0.22 -s 5 -d 2 -p cbr -e 210 -c 0 -i 8 -a 0 -x {5.1 4194304.1 -1 ------- null}
r -t 0.222244 -s 1 -d 0 -p cbr -e 210 -c 0 -i 4 -a 0 -x {5.1 4194304.1 4 ------- null}
r -t 0.230431 -s 9 -d 1 -p graft -e 80 -c 3 -i 7 -a 3 -x {4.0 1.0 -1 ------- null}
m -t 0.2304306666666667 -s 1 -n m2 -c red -h circle
+ -t 0.230431 -s 1 -d 0 -p graft -e 80 -c 3 -i 9 -a 3 -x {1.0 0.0 -1 ------- null}
- -t 0.230431 -s 1 -d 0 -p graft -e 80 -c 3 -i 9 -a 3 -x {1.0 0.0 -1 ------- null}
h -t 0.230431 -s 1 -d 0 -p graft -e 80 -c 3 -i 9 -a 3 -x {1.0 0.0 -1 ------- null}
r -t 0.23112 -s 5 -d 2 -p cbr -e 210 -c 0 -i 8 -a 0 -x {5.1 4194304.1 6 ------- null}
h -t 0.23112 -s 2 -d 9 -p cbr -e 210 -c 0 -i 8 -a 0 -x {5.1 4194304.1 6 ------- null}
r -t 0.231124 -s 9 -d 4 -p cbr -e 210 -c 0 -i 5 -a 0 -x {5.1 4194304.1 5 ------- null}
r -t 0.231124 -s 9 -d 3 -p cbr -e 210 -c 0 -i 5 -a 0 -x {5.1 4194304.1 5 ------- null}
r -t 0.231124 -s 9 -d 1 -p cbr -e 210 -c 0 -i 5 -a 0 -x {5.1 4194304.1 5 ------- null}
+ -t 0.231124 -s 1 -d 0 -p cbr -e 210 -c 0 -i 5 -a 0 -x {5.1 4194304.1 5 ------- null}
- -t 0.231124 -s 1 -d 0 -p cbr -e 210 -c 0 -i 5 -a 0 -x {5.1 4194304.1 5 ------- null}
h -t 0.231124 -s 1 -d 0 -p cbr -e 210 -c 0 -i 5 -a 0 -x {5.1 4194304.1 -1 ------- null}
+ -t 0.24 -s 5 -d 2 -p cbr -e 210 -c 0 -i 10 -a 0 -x {5.1 4194304.1 7 ------- null}
- -t 0.24 -s 5 -d 2 -p cbr -e 210 -c 0 -i 10 -a 0 -x {5.1 4194304.1 7 ------- null}
h -t 0.24 -s 5 -d 2 -p cbr -e 210 -c 0 -i 10 -a 0 -x {5.1 4194304.1 -1 ------- null}
r -t 0.240857 -s 1 -d 0 -p graft -e 80 -c 3 -i 9 -a 3 -x {1.0 0.0 -1 ------- null}
m -t 0.24085733333333337 -s 0 -n m2 -c red -h circle
r -t 0.242244 -s 1 -d 0 -p cbr -e 210 -c 0 -i 5 -a 0 -x {5.1 4194304.1 5 ------- null}
m -t 0.25 -s 7 -n m1 -c blue -h circle
+ -t 0.25 -s 7 -d 1 -p graft -e 80 -c 3 -i 11 -a 3 -x {7.0 1.0 -1 ------- null}
- -t 0.25 -s 7 -d 1 -p graft -e 80 -c 3 -i 11 -a 3 -x {7.0 1.0 -1 ------- null}
h -t 0.25 -s 7 -d 1 -p graft -e 80 -c 3 -i 11 -a 3 -x {7.0 1.0 -1 ------- null}
r -t 0.25112 -s 5 -d 2 -p cbr -e 210 -c 0 -i 10 -a 0 -x {5.1 4194304.1 7 ------- null}
h -t 0.25112 -s 2 -d 9 -p cbr -e 210 -c 0 -i 10 -a 0 -x {5.1 4194304.1 7 ------- null}
r -t 0.251124 -s 9 -d 4 -p cbr -e 210 -c 0 -i 8 -a 0 -x {5.1 4194304.1 6 ------- null}
r -t 0.251124 -s 9 -d 3 -p cbr -e 210 -c 0 -i 8 -a 0 -x {5.1 4194304.1 6 ------- null}
r -t 0.251124 -s 9 -d 1 -p cbr -e 210 -c 0 -i 8 -a 0 -x {5.1 4194304.1 6 ------- null}
+ -t 0.251124 -s 1 -d 0 -p cbr -e 210 -c 0 -i 8 -a 0 -x {5.1 4194304.1 6 ------- null}
- -t 0.251124 -s 1 -d 0 -p cbr -e 210 -c 0 -i 8 -a 0 -x {5.1 4194304.1 6 ------- null}
h -t 0.251124 -s 1 -d 0 -p cbr -e 210 -c 0 -i 8 -a 0 -x {5.1 4194304.1 -1 ------- null}
+ -t 0.26 -s 5 -d 2 -p cbr -e 210 -c 0 -i 12 -a 0 -x {5.1 4194304.1 8 ------- null}
- -t 0.26 -s 5 -d 2 -p cbr -e 210 -c 0 -i 12 -a 0 -x {5.1 4194304.1 8 ------- null}
h -t 0.26 -s 5 -d 2 -p cbr -e 210 -c 0 -i 12 -a 0 -x {5.1 4194304.1 -1 ------- null}
r -t 0.260427 -s 7 -d 1 -p graft -e 80 -c 3 -i 11 -a 3 -x {7.0 1.0 -1 ------- null}
r -t 0.262244 -s 1 -d 0 -p cbr -e 210 -c 0 -i 8 -a 0 -x {5.1 4194304.1 6 ------- null}
r -t 0.27112 -s 5 -d 2 -p cbr -e 210 -c 0 -i 12 -a 0 -x {5.1 4194304.1 8 ------- null}
h -t 0.27112 -s 2 -d 9 -p cbr -e 210 -c 0 -i 12 -a 0 -x {5.1 4194304.1 8 ------- null}
r -t 0.271124 -s 9 -d 4 -p cbr -e 210 -c 0 -i 10 -a 0 -x {5.1 4194304.1 7 ------- null}
r -t 0.271124 -s 9 -d 3 -p cbr -e 210 -c 0 -i 10 -a 0 -x {5.1 4194304.1 7 ------- null}
r -t 0.271124 -s 9 -d 1 -p cbr -e 210 -c 0 -i 10 -a 0 -x {5.1 4194304.1 7 ------- null}
+ -t 0.271124 -s 1 -d 0 -p cbr -e 210 -c 0 -i 10 -a 0 -x {5.1 4194304.1 7 ------- null}
- -t 0.271124 -s 1 -d 0 -p cbr -e 210 -c 0 -i 10 -a 0 -x {5.1 4194304.1 7 ------- null}
h -t 0.271124 -s 1 -d 0 -p cbr -e 210 -c 0 -i 10 -a 0 -x {5.1 4194304.1 -1 ------- null}
+ -t 0.271124 -s 1 -d 7 -p cbr -e 210 -c 0 -i 10 -a 0 -x {5.1 4194304.1 7 ------- null}
- -t 0.271124 -s 1 -d 7 -p cbr -e 210 -c 0 -i 10 -a 0 -x {5.1 4194304.1 7 ------- null}
h -t 0.271124 -s 1 -d 7 -p cbr -e 210 -c 0 -i 10 -a 0 -x {5.1 4194304.1 -1 ------- null}
+ -t 0.28 -s 5 -d 2 -p cbr -e 210 -c 0 -i 13 -a 0 -x {5.1 4194304.1 9 ------- null}
- -t 0.28 -s 5 -d 2 -p cbr -e 210 -c 0 -i 13 -a 0 -x {5.1 4194304.1 9 ------- null}
h -t 0.28 -s 5 -d 2 -p cbr -e 210 -c 0 -i 13 -a 0 -x {5.1 4194304.1 -1 ------- null}
r -t 0.282244 -s 1 -d 0 -p cbr -e 210 -c 0 -i 10 -a 0 -x {5.1 4194304.1 7 ------- null}
r -t 0.282244 -s 1 -d 7 -p cbr -e 210 -c 0 -i 10 -a 0 -x {5.1 4194304.1 7 ------- null}
r -t 0.29112 -s 5 -d 2 -p cbr -e 210 -c 0 -i 13 -a 0 -x {5.1 4194304.1 9 ------- null}
h -t 0.29112 -s 2 -d 9 -p cbr -e 210 -c 0 -i 13 -a 0 -x {5.1 4194304.1 9 ------- null}
r -t 0.291124 -s 9 -d 4 -p cbr -e 210 -c 0 -i 12 -a 0 -x {5.1 4194304.1 8 ------- null}
r -t 0.291124 -s 9 -d 3 -p cbr -e 210 -c 0 -i 12 -a 0 -x {5.1 4194304.1 8 ------- null}
r -t 0.291124 -s 9 -d 1 -p cbr -e 210 -c 0 -i 12 -a 0 -x {5.1 4194304.1 8 ------- null}
+ -t 0.291124 -s 1 -d 0 -p cbr -e 210 -c 0 -i 12 -a 0 -x {5.1 4194304.1 8 ------- null}
- -t 0.291124 -s 1 -d 0 -p cbr -e 210 -c 0 -i 12 -a 0 -x {5.1 4194304.1 8 ------- null}
h -t 0.291124 -s 1 -d 0 -p cbr -e 210 -c 0 -i 12 -a 0 -x {5.1 4194304.1 -1 ------- null}
+ -t 0.291124 -s 1 -d 7 -p cbr -e 210 -c 0 -i 12 -a 0 -x {5.1 4194304.1 8 ------- null}
- -t 0.291124 -s 1 -d 7 -p cbr -e 210 -c 0 -i 12 -a 0 -x {5.1 4194304.1 8 ------- null}
h -t 0.291124 -s 1 -d 7 -p cbr -e 210 -c 0 -i 12 -a 0 -x {5.1 4194304.1 -1 ------- null}
m -t 0.29999999999999999 -s 8 -n m1 -c blue -h circle
+ -t 0.3 -s 8 -d 0 -p graft -e 80 -c 3 -i 14 -a 3 -x {8.0 0.0 -1 ------- null}
- -t 0.3 -s 8 -d 0 -p graft -e 80 -c 3 -i 14 -a 3 -x {8.0 0.0 -1 ------- null}
h -t 0.3 -s 8 -d 0 -p graft -e 80 -c 3 -i 14 -a 3 -x {8.0 0.0 -1 ------- null}
+ -t 0.3 -s 5 -d 2 -p cbr -e 210 -c 0 -i 15 -a 0 -x {5.1 4194304.1 10 ------- null}
- -t 0.3 -s 5 -d 2 -p cbr -e 210 -c 0 -i 15 -a 0 -x {5.1 4194304.1 10 ------- null}
h -t 0.3 -s 5 -d 2 -p cbr -e 210 -c 0 -i 15 -a 0 -x {5.1 4194304.1 -1 ------- null}
r -t 0.302244 -s 1 -d 0 -p cbr -e 210 -c 0 -i 12 -a 0 -x {5.1 4194304.1 8 ------- null}
r -t 0.302244 -s 1 -d 7 -p cbr -e 210 -c 0 -i 12 -a 0 -x {5.1 4194304.1 8 ------- null}
r -t 0.310427 -s 8 -d 0 -p graft -e 80 -c 3 -i 14 -a 3 -x {8.0 0.0 -1 ------- null}
r -t 0.31112 -s 5 -d 2 -p cbr -e 210 -c 0 -i 15 -a 0 -x {5.1 4194304.1 10 ------- null}
h -t 0.31112 -s 2 -d 9 -p cbr -e 210 -c 0 -i 15 -a 0 -x {5.1 4194304.1 10 ------- null}
r -t 0.311124 -s 9 -d 4 -p cbr -e 210 -c 0 -i 13 -a 0 -x {5.1 4194304.1 9 ------- null}
r -t 0.311124 -s 9 -d 3 -p cbr -e 210 -c 0 -i 13 -a 0 -x {5.1 4194304.1 9 ------- null}
r -t 0.311124 -s 9 -d 1 -p cbr -e 210 -c 0 -i 13 -a 0 -x {5.1 4194304.1 9 ------- null}
+ -t 0.311124 -s 1 -d 0 -p cbr -e 210 -c 0 -i 13 -a 0 -x {5.1 4194304.1 9 ------- null}
- -t 0.311124 -s 1 -d 0 -p cbr -e 210 -c 0 -i 13 -a 0 -x {5.1 4194304.1 9 ------- null}
h -t 0.311124 -s 1 -d 0 -p cbr -e 210 -c 0 -i 13 -a 0 -x {5.1 4194304.1 -1 ------- null}
+ -t 0.311124 -s 1 -d 7 -p cbr -e 210 -c 0 -i 13 -a 0 -x {5.1 4194304.1 9 ------- null}
- -t 0.311124 -s 1 -d 7 -p cbr -e 210 -c 0 -i 13 -a 0 -x {5.1 4194304.1 9 ------- null}
h -t 0.311124 -s 1 -d 7 -p cbr -e 210 -c 0 -i 13 -a 0 -x {5.1 4194304.1 -1 ------- null}
+ -t 0.32 -s 5 -d 2 -p cbr -e 210 -c 0 -i 16 -a 0 -x {5.1 4194304.1 11 ------- null}
- -t 0.32 -s 5 -d 2 -p cbr -e 210 -c 0 -i 16 -a 0 -x {5.1 4194304.1 11 ------- null}
h -t 0.32 -s 5 -d 2 -p cbr -e 210 -c 0 -i 16 -a 0 -x {5.1 4194304.1 -1 ------- null}
r -t 0.322244 -s 1 -d 0 -p cbr -e 210 -c 0 -i 13 -a 0 -x {5.1 4194304.1 9 ------- null}
+ -t 0.322244 -s 0 -d 8 -p cbr -e 210 -c 0 -i 13 -a 0 -x {5.1 4194304.1 9 ------- null}
- -t 0.322244 -s 0 -d 8 -p cbr -e 210 -c 0 -i 13 -a 0 -x {5.1 4194304.1 9 ------- null}
h -t 0.322244 -s 0 -d 8 -p cbr -e 210 -c 0 -i 13 -a 0 -x {5.1 4194304.1 -1 ------- null}
r -t 0.322244 -s 1 -d 7 -p cbr -e 210 -c 0 -i 13 -a 0 -x {5.1 4194304.1 9 ------- null}
r -t 0.33112 -s 5 -d 2 -p cbr -e 210 -c 0 -i 16 -a 0 -x {5.1 4194304.1 11 ------- null}
h -t 0.33112 -s 2 -d 9 -p cbr -e 210 -c 0 -i 16 -a 0 -x {5.1 4194304.1 11 ------- null}
r -t 0.331124 -s 9 -d 4 -p cbr -e 210 -c 0 -i 15 -a 0 -x {5.1 4194304.1 10 ------- null}
r -t 0.331124 -s 9 -d 3 -p cbr -e 210 -c 0 -i 15 -a 0 -x {5.1 4194304.1 10 ------- null}
r -t 0.331124 -s 9 -d 1 -p cbr -e 210 -c 0 -i 15 -a 0 -x {5.1 4194304.1 10 ------- null}
+ -t 0.331124 -s 1 -d 0 -p cbr -e 210 -c 0 -i 15 -a 0 -x {5.1 4194304.1 10 ------- null}
- -t 0.331124 -s 1 -d 0 -p cbr -e 210 -c 0 -i 15 -a 0 -x {5.1 4194304.1 10 ------- null}
h -t 0.331124 -s 1 -d 0 -p cbr -e 210 -c 0 -i 15 -a 0 -x {5.1 4194304.1 -1 ------- null}
+ -t 0.331124 -s 1 -d 7 -p cbr -e 210 -c 0 -i 15 -a 0 -x {5.1 4194304.1 10 ------- null}
- -t 0.331124 -s 1 -d 7 -p cbr -e 210 -c 0 -i 15 -a 0 -x {5.1 4194304.1 10 ------- null}
h -t 0.331124 -s 1 -d 7 -p cbr -e 210 -c 0 -i 15 -a 0 -x {5.1 4194304.1 -1 ------- null}
r -t 0.333364 -s 0 -d 8 -p cbr -e 210 -c 0 -i 13 -a 0 -x {5.1 4194304.1 9 ------- null}
+ -t 0.34 -s 5 -d 2 -p cbr -e 210 -c 0 -i 17 -a 0 -x {5.1 4194304.1 12 ------- null}
- -t 0.34 -s 5 -d 2 -p cbr -e 210 -c 0 -i 17 -a 0 -x {5.1 4194304.1 12 ------- null}
h -t 0.34 -s 5 -d 2 -p cbr -e 210 -c 0 -i 17 -a 0 -x {5.1 4194304.1 -1 ------- null}
r -t 0.342244 -s 1 -d 0 -p cbr -e 210 -c 0 -i 15 -a 0 -x {5.1 4194304.1 10 ------- null}
+ -t 0.342244 -s 0 -d 8 -p cbr -e 210 -c 0 -i 15 -a 0 -x {5.1 4194304.1 10 ------- null}
- -t 0.342244 -s 0 -d 8 -p cbr -e 210 -c 0 -i 15 -a 0 -x {5.1 4194304.1 10 ------- null}
h -t 0.342244 -s 0 -d 8 -p cbr -e 210 -c 0 -i 15 -a 0 -x {5.1 4194304.1 -1 ------- null}
r -t 0.342244 -s 1 -d 7 -p cbr -e 210 -c 0 -i 15 -a 0 -x {5.1 4194304.1 10 ------- null}
r -t 0.35112 -s 5 -d 2 -p cbr -e 210 -c 0 -i 17 -a 0 -x {5.1 4194304.1 12 ------- null}
h -t 0.35112 -s 2 -d 9 -p cbr -e 210 -c 0 -i 17 -a 0 -x {5.1 4194304.1 12 ------- null}
r -t 0.351124 -s 9 -d 4 -p cbr -e 210 -c 0 -i 16 -a 0 -x {5.1 4194304.1 11 ------- null}
r -t 0.351124 -s 9 -d 3 -p cbr -e 210 -c 0 -i 16 -a 0 -x {5.1 4194304.1 11 ------- null}
r -t 0.351124 -s 9 -d 1 -p cbr -e 210 -c 0 -i 16 -a 0 -x {5.1 4194304.1 11 ------- null}
+ -t 0.351124 -s 1 -d 0 -p cbr -e 210 -c 0 -i 16 -a 0 -x {5.1 4194304.1 11 ------- null}
- -t 0.351124 -s 1 -d 0 -p cbr -e 210 -c 0 -i 16 -a 0 -x {5.1 4194304.1 11 ------- null}
h -t 0.351124 -s 1 -d 0 -p cbr -e 210 -c 0 -i 16 -a 0 -x {5.1 4194304.1 -1 ------- null}
+ -t 0.351124 -s 1 -d 7 -p cbr -e 210 -c 0 -i 16 -a 0 -x {5.1 4194304.1 11 ------- null}
- -t 0.351124 -s 1 -d 7 -p cbr -e 210 -c 0 -i 16 -a 0 -x {5.1 4194304.1 11 ------- null}
h -t 0.351124 -s 1 -d 7 -p cbr -e 210 -c 0 -i 16 -a 0 -x {5.1 4194304.1 -1 ------- null}
r -t 0.353364 -s 0 -d 8 -p cbr -e 210 -c 0 -i 15 -a 0 -x {5.1 4194304.1 10 ------- null}
+ -t 0.36 -s 5 -d 2 -p cbr -e 210 -c 0 -i 18 -a 0 -x {5.1 4194304.1 13 ------- null}
- -t 0.36 -s 5 -d 2 -p cbr -e 210 -c 0 -i 18 -a 0 -x {5.1 4194304.1 13 ------- null}
h -t 0.36 -s 5 -d 2 -p cbr -e 210 -c 0 -i 18 -a 0 -x {5.1 4194304.1 -1 ------- null}
r -t 0.362244 -s 1 -d 0 -p cbr -e 210 -c 0 -i 16 -a 0 -x {5.1 4194304.1 11 ------- null}
+ -t 0.362244 -s 0 -d 8 -p cbr -e 210 -c 0 -i 16 -a 0 -x {5.1 4194304.1 11 ------- null}
- -t 0.362244 -s 0 -d 8 -p cbr -e 210 -c 0 -i 16 -a 0 -x {5.1 4194304.1 11 ------- null}
h -t 0.362244 -s 0 -d 8 -p cbr -e 210 -c 0 -i 16 -a 0 -x {5.1 4194304.1 -1 ------- null}
r -t 0.362244 -s 1 -d 7 -p cbr -e 210 -c 0 -i 16 -a 0 -x {5.1 4194304.1 11 ------- null}
r -t 0.37112 -s 5 -d 2 -p cbr -e 210 -c 0 -i 18 -a 0 -x {5.1 4194304.1 13 ------- null}
h -t 0.37112 -s 2 -d 9 -p cbr -e 210 -c 0 -i 18 -a 0 -x {5.1 4194304.1 13 ------- null}
r -t 0.371124 -s 9 -d 4 -p cbr -e 210 -c 0 -i 17 -a 0 -x {5.1 4194304.1 12 ------- null}
r -t 0.371124 -s 9 -d 3 -p cbr -e 210 -c 0 -i 17 -a 0 -x {5.1 4194304.1 12 ------- null}
r -t 0.371124 -s 9 -d 1 -p cbr -e 210 -c 0 -i 17 -a 0 -x {5.1 4194304.1 12 ------- null}
+ -t 0.371124 -s 1 -d 0 -p cbr -e 210 -c 0 -i 17 -a 0 -x {5.1 4194304.1 12 ------- null}
- -t 0.371124 -s 1 -d 0 -p cbr -e 210 -c 0 -i 17 -a 0 -x {5.1 4194304.1 12 ------- null}
h -t 0.371124 -s 1 -d 0 -p cbr -e 210 -c 0 -i 17 -a 0 -x {5.1 4194304.1 -1 ------- null}
+ -t 0.371124 -s 1 -d 7 -p cbr -e 210 -c 0 -i 17 -a 0 -x {5.1 4194304.1 12 ------- null}
- -t 0.371124 -s 1 -d 7 -p cbr -e 210 -c 0 -i 17 -a 0 -x {5.1 4194304.1 12 ------- null}
h -t 0.371124 -s 1 -d 7 -p cbr -e 210 -c 0 -i 17 -a 0 -x {5.1 4194304.1 -1 ------- null}
r -t 0.373364 -s 0 -d 8 -p cbr -e 210 -c 0 -i 16 -a 0 -x {5.1 4194304.1 11 ------- null}
+ -t 0.38 -s 5 -d 2 -p cbr -e 210 -c 0 -i 19 -a 0 -x {5.1 4194304.1 14 ------- null}
- -t 0.38 -s 5 -d 2 -p cbr -e 210 -c 0 -i 19 -a 0 -x {5.1 4194304.1 14 ------- null}
h -t 0.38 -s 5 -d 2 -p cbr -e 210 -c 0 -i 19 -a 0 -x {5.1 4194304.1 -1 ------- null}
r -t 0.382244 -s 1 -d 0 -p cbr -e 210 -c 0 -i 17 -a 0 -x {5.1 4194304.1 12 ------- null}
+ -t 0.382244 -s 0 -d 8 -p cbr -e 210 -c 0 -i 17 -a 0 -x {5.1 4194304.1 12 ------- null}
- -t 0.382244 -s 0 -d 8 -p cbr -e 210 -c 0 -i 17 -a 0 -x {5.1 4194304.1 12 ------- null}
h -t 0.382244 -s 0 -d 8 -p cbr -e 210 -c 0 -i 17 -a 0 -x {5.1 4194304.1 -1 ------- null}
r -t 0.382244 -s 1 -d 7 -p cbr -e 210 -c 0 -i 17 -a 0 -x {5.1 4194304.1 12 ------- null}
r -t 0.39112 -s 5 -d 2 -p cbr -e 210 -c 0 -i 19 -a 0 -x {5.1 4194304.1 14 ------- null}
h -t 0.39112 -s 2 -d 9 -p cbr -e 210 -c 0 -i 19 -a 0 -x {5.1 4194304.1 14 ------- null}
r -t 0.391124 -s 9 -d 4 -p cbr -e 210 -c 0 -i 18 -a 0 -x {5.1 4194304.1 13 ------- null}
r -t 0.391124 -s 9 -d 3 -p cbr -e 210 -c 0 -i 18 -a 0 -x {5.1 4194304.1 13 ------- null}
r -t 0.391124 -s 9 -d 1 -p cbr -e 210 -c 0 -i 18 -a 0 -x {5.1 4194304.1 13 ------- null}
+ -t 0.391124 -s 1 -d 0 -p cbr -e 210 -c 0 -i 18 -a 0 -x {5.1 4194304.1 13 ------- null}
- -t 0.391124 -s 1 -d 0 -p cbr -e 210 -c 0 -i 18 -a 0 -x {5.1 4194304.1 13 ------- null}
h -t 0.391124 -s 1 -d 0 -p cbr -e 210 -c 0 -i 18 -a 0 -x {5.1 4194304.1 -1 ------- null}
+ -t 0.391124 -s 1 -d 7 -p cbr -e 210 -c 0 -i 18 -a 0 -x {5.1 4194304.1 13 ------- null}
- -t 0.391124 -s 1 -d 7 -p cbr -e 210 -c 0 -i 18 -a 0 -x {5.1 4194304.1 13 ------- null}
h -t 0.391124 -s 1 -d 7 -p cbr -e 210 -c 0 -i 18 -a 0 -x {5.1 4194304.1 -1 ------- null}
r -t 0.393364 -s 0 -d 8 -p cbr -e 210 -c 0 -i 17 -a 0 -x {5.1 4194304.1 12 ------- null}
+ -t 0.4 -s 5 -d 2 -p cbr -e 210 -c 0 -i 20 -a 0 -x {5.1 4194304.1 15 ------- null}
- -t 0.4 -s 5 -d 2 -p cbr -e 210 -c 0 -i 20 -a 0 -x {5.1 4194304.1 15 ------- null}
h -t 0.4 -s 5 -d 2 -p cbr -e 210 -c 0 -i 20 -a 0 -x {5.1 4194304.1 -1 ------- null}
r -t 0.402244 -s 1 -d 0 -p cbr -e 210 -c 0 -i 18 -a 0 -x {5.1 4194304.1 13 ------- null}
+ -t 0.402244 -s 0 -d 8 -p cbr -e 210 -c 0 -i 18 -a 0 -x {5.1 4194304.1 13 ------- null}
- -t 0.402244 -s 0 -d 8 -p cbr -e 210 -c 0 -i 18 -a 0 -x {5.1 4194304.1 13 ------- null}
h -t 0.402244 -s 0 -d 8 -p cbr -e 210 -c 0 -i 18 -a 0 -x {5.1 4194304.1 -1 ------- null}
r -t 0.402244 -s 1 -d 7 -p cbr -e 210 -c 0 -i 18 -a 0 -x {5.1 4194304.1 13 ------- null}
r -t 0.41112 -s 5 -d 2 -p cbr -e 210 -c 0 -i 20 -a 0 -x {5.1 4194304.1 15 ------- null}
h -t 0.41112 -s 2 -d 9 -p cbr -e 210 -c 0 -i 20 -a 0 -x {5.1 4194304.1 15 ------- null}
r -t 0.411124 -s 9 -d 4 -p cbr -e 210 -c 0 -i 19 -a 0 -x {5.1 4194304.1 14 ------- null}
r -t 0.411124 -s 9 -d 3 -p cbr -e 210 -c 0 -i 19 -a 0 -x {5.1 4194304.1 14 ------- null}
r -t 0.411124 -s 9 -d 1 -p cbr -e 210 -c 0 -i 19 -a 0 -x {5.1 4194304.1 14 ------- null}
+ -t 0.411124 -s 1 -d 0 -p cbr -e 210 -c 0 -i 19 -a 0 -x {5.1 4194304.1 14 ------- null}
- -t 0.411124 -s 1 -d 0 -p cbr -e 210 -c 0 -i 19 -a 0 -x {5.1 4194304.1 14 ------- null}
h -t 0.411124 -s 1 -d 0 -p cbr -e 210 -c 0 -i 19 -a 0 -x {5.1 4194304.1 -1 ------- null}
+ -t 0.411124 -s 1 -d 7 -p cbr -e 210 -c 0 -i 19 -a 0 -x {5.1 4194304.1 14 ------- null}
- -t 0.411124 -s 1 -d 7 -p cbr -e 210 -c 0 -i 19 -a 0 -x {5.1 4194304.1 14 ------- null}
h -t 0.411124 -s 1 -d 7 -p cbr -e 210 -c 0 -i 19 -a 0 -x {5.1 4194304.1 -1 ------- null}
r -t 0.413364 -s 0 -d 8 -p cbr -e 210 -c 0 -i 18 -a 0 -x {5.1 4194304.1 13 ------- null}
+ -t 0.42 -s 5 -d 2 -p cbr -e 210 -c 0 -i 21 -a 0 -x {5.1 4194304.1 16 ------- null}
- -t 0.42 -s 5 -d 2 -p cbr -e 210 -c 0 -i 21 -a 0 -x {5.1 4194304.1 16 ------- null}
h -t 0.42 -s 5 -d 2 -p cbr -e 210 -c 0 -i 21 -a 0 -x {5.1 4194304.1 -1 ------- null}
r -t 0.422244 -s 1 -d 0 -p cbr -e 210 -c 0 -i 19 -a 0 -x {5.1 4194304.1 14 ------- null}
+ -t 0.422244 -s 0 -d 8 -p cbr -e 210 -c 0 -i 19 -a 0 -x {5.1 4194304.1 14 ------- null}
- -t 0.422244 -s 0 -d 8 -p cbr -e 210 -c 0 -i 19 -a 0 -x {5.1 4194304.1 14 ------- null}
h -t 0.422244 -s 0 -d 8 -p cbr -e 210 -c 0 -i 19 -a 0 -x {5.1 4194304.1 -1 ------- null}
r -t 0.422244 -s 1 -d 7 -p cbr -e 210 -c 0 -i 19 -a 0 -x {5.1 4194304.1 14 ------- null}
r -t 0.43112 -s 5 -d 2 -p cbr -e 210 -c 0 -i 21 -a 0 -x {5.1 4194304.1 16 ------- null}
h -t 0.43112 -s 2 -d 9 -p cbr -e 210 -c 0 -i 21 -a 0 -x {5.1 4194304.1 16 ------- null}
r -t 0.431124 -s 9 -d 4 -p cbr -e 210 -c 0 -i 20 -a 0 -x {5.1 4194304.1 15 ------- null}
r -t 0.431124 -s 9 -d 3 -p cbr -e 210 -c 0 -i 20 -a 0 -x {5.1 4194304.1 15 ------- null}
r -t 0.431124 -s 9 -d 1 -p cbr -e 210 -c 0 -i 20 -a 0 -x {5.1 4194304.1 15 ------- null}
+ -t 0.431124 -s 1 -d 0 -p cbr -e 210 -c 0 -i 20 -a 0 -x {5.1 4194304.1 15 ------- null}
- -t 0.431124 -s 1 -d 0 -p cbr -e 210 -c 0 -i 20 -a 0 -x {5.1 4194304.1 15 ------- null}
h -t 0.431124 -s 1 -d 0 -p cbr -e 210 -c 0 -i 20 -a 0 -x {5.1 4194304.1 -1 ------- null}
+ -t 0.431124 -s 1 -d 7 -p cbr -e 210 -c 0 -i 20 -a 0 -x {5.1 4194304.1 15 ------- null}
- -t 0.431124 -s 1 -d 7 -p cbr -e 210 -c 0 -i 20 -a 0 -x {5.1 4194304.1 15 ------- null}
h -t 0.431124 -s 1 -d 7 -p cbr -e 210 -c 0 -i 20 -a 0 -x {5.1 4194304.1 -1 ------- null}
r -t 0.433364 -s 0 -d 8 -p cbr -e 210 -c 0 -i 19 -a 0 -x {5.1 4194304.1 14 ------- null}
+ -t 0.44 -s 5 -d 2 -p cbr -e 210 -c 0 -i 22 -a 0 -x {5.1 4194304.1 17 ------- null}
- -t 0.44 -s 5 -d 2 -p cbr -e 210 -c 0 -i 22 -a 0 -x {5.1 4194304.1 17 ------- null}
h -t 0.44 -s 5 -d 2 -p cbr -e 210 -c 0 -i 22 -a 0 -x {5.1 4194304.1 -1 ------- null}
r -t 0.442244 -s 1 -d 0 -p cbr -e 210 -c 0 -i 20 -a 0 -x {5.1 4194304.1 15 ------- null}
+ -t 0.442244 -s 0 -d 8 -p cbr -e 210 -c 0 -i 20 -a 0 -x {5.1 4194304.1 15 ------- null}
- -t 0.442244 -s 0 -d 8 -p cbr -e 210 -c 0 -i 20 -a 0 -x {5.1 4194304.1 15 ------- null}
h -t 0.442244 -s 0 -d 8 -p cbr -e 210 -c 0 -i 20 -a 0 -x {5.1 4194304.1 -1 ------- null}
r -t 0.442244 -s 1 -d 7 -p cbr -e 210 -c 0 -i 20 -a 0 -x {5.1 4194304.1 15 ------- null}
r -t 0.45112 -s 5 -d 2 -p cbr -e 210 -c 0 -i 22 -a 0 -x {5.1 4194304.1 17 ------- null}
h -t 0.45112 -s 2 -d 9 -p cbr -e 210 -c 0 -i 22 -a 0 -x {5.1 4194304.1 17 ------- null}
r -t 0.451124 -s 9 -d 4 -p cbr -e 210 -c 0 -i 21 -a 0 -x {5.1 4194304.1 16 ------- null}
r -t 0.451124 -s 9 -d 3 -p cbr -e 210 -c 0 -i 21 -a 0 -x {5.1 4194304.1 16 ------- null}
r -t 0.451124 -s 9 -d 1 -p cbr -e 210 -c 0 -i 21 -a 0 -x {5.1 4194304.1 16 ------- null}
+ -t 0.451124 -s 1 -d 0 -p cbr -e 210 -c 0 -i 21 -a 0 -x {5.1 4194304.1 16 ------- null}
- -t 0.451124 -s 1 -d 0 -p cbr -e 210 -c 0 -i 21 -a 0 -x {5.1 4194304.1 16 ------- null}
h -t 0.451124 -s 1 -d 0 -p cbr -e 210 -c 0 -i 21 -a 0 -x {5.1 4194304.1 -1 ------- null}
+ -t 0.451124 -s 1 -d 7 -p cbr -e 210 -c 0 -i 21 -a 0 -x {5.1 4194304.1 16 ------- null}
- -t 0.451124 -s 1 -d 7 -p cbr -e 210 -c 0 -i 21 -a 0 -x {5.1 4194304.1 16 ------- null}
h -t 0.451124 -s 1 -d 7 -p cbr -e 210 -c 0 -i 21 -a 0 -x {5.1 4194304.1 -1 ------- null}
r -t 0.453364 -s 0 -d 8 -p cbr -e 210 -c 0 -i 20 -a 0 -x {5.1 4194304.1 15 ------- null}
+ -t 0.46 -s 5 -d 2 -p cbr -e 210 -c 0 -i 23 -a 0 -x {5.1 4194304.1 18 ------- null}
- -t 0.46 -s 5 -d 2 -p cbr -e 210 -c 0 -i 23 -a 0 -x {5.1 4194304.1 18 ------- null}
h -t 0.46 -s 5 -d 2 -p cbr -e 210 -c 0 -i 23 -a 0 -x {5.1 4194304.1 -1 ------- null}
r -t 0.462244 -s 1 -d 0 -p cbr -e 210 -c 0 -i 21 -a 0 -x {5.1 4194304.1 16 ------- null}
+ -t 0.462244 -s 0 -d 8 -p cbr -e 210 -c 0 -i 21 -a 0 -x {5.1 4194304.1 16 ------- null}
- -t 0.462244 -s 0 -d 8 -p cbr -e 210 -c 0 -i 21 -a 0 -x {5.1 4194304.1 16 ------- null}
h -t 0.462244 -s 0 -d 8 -p cbr -e 210 -c 0 -i 21 -a 0 -x {5.1 4194304.1 -1 ------- null}
r -t 0.462244 -s 1 -d 7 -p cbr -e 210 -c 0 -i 21 -a 0 -x {5.1 4194304.1 16 ------- null}
r -t 0.47112 -s 5 -d 2 -p cbr -e 210 -c 0 -i 23 -a 0 -x {5.1 4194304.1 18 ------- null}
h -t 0.47112 -s 2 -d 9 -p cbr -e 210 -c 0 -i 23 -a 0 -x {5.1 4194304.1 18 ------- null}
r -t 0.471124 -s 9 -d 4 -p cbr -e 210 -c 0 -i 22 -a 0 -x {5.1 4194304.1 17 ------- null}
r -t 0.471124 -s 9 -d 3 -p cbr -e 210 -c 0 -i 22 -a 0 -x {5.1 4194304.1 17 ------- null}
r -t 0.471124 -s 9 -d 1 -p cbr -e 210 -c 0 -i 22 -a 0 -x {5.1 4194304.1 17 ------- null}
+ -t 0.471124 -s 1 -d 0 -p cbr -e 210 -c 0 -i 22 -a 0 -x {5.1 4194304.1 17 ------- null}
- -t 0.471124 -s 1 -d 0 -p cbr -e 210 -c 0 -i 22 -a 0 -x {5.1 4194304.1 17 ------- null}
h -t 0.471124 -s 1 -d 0 -p cbr -e 210 -c 0 -i 22 -a 0 -x {5.1 4194304.1 -1 ------- null}
+ -t 0.471124 -s 1 -d 7 -p cbr -e 210 -c 0 -i 22 -a 0 -x {5.1 4194304.1 17 ------- null}
- -t 0.471124 -s 1 -d 7 -p cbr -e 210 -c 0 -i 22 -a 0 -x {5.1 4194304.1 17 ------- null}
h -t 0.471124 -s 1 -d 7 -p cbr -e 210 -c 0 -i 22 -a 0 -x {5.1 4194304.1 -1 ------- null}
r -t 0.473364 -s 0 -d 8 -p cbr -e 210 -c 0 -i 21 -a 0 -x {5.1 4194304.1 16 ------- null}
+ -t 0.48 -s 5 -d 2 -p cbr -e 210 -c 0 -i 24 -a 0 -x {5.1 4194304.1 19 ------- null}
- -t 0.48 -s 5 -d 2 -p cbr -e 210 -c 0 -i 24 -a 0 -x {5.1 4194304.1 19 ------- null}
h -t 0.48 -s 5 -d 2 -p cbr -e 210 -c 0 -i 24 -a 0 -x {5.1 4194304.1 -1 ------- null}
r -t 0.482244 -s 1 -d 0 -p cbr -e 210 -c 0 -i 22 -a 0 -x {5.1 4194304.1 17 ------- null}
+ -t 0.482244 -s 0 -d 8 -p cbr -e 210 -c 0 -i 22 -a 0 -x {5.1 4194304.1 17 ------- null}
- -t 0.482244 -s 0 -d 8 -p cbr -e 210 -c 0 -i 22 -a 0 -x {5.1 4194304.1 17 ------- null}
h -t 0.482244 -s 0 -d 8 -p cbr -e 210 -c 0 -i 22 -a 0 -x {5.1 4194304.1 -1 ------- null}
r -t 0.482244 -s 1 -d 7 -p cbr -e 210 -c 0 -i 22 -a 0 -x {5.1 4194304.1 17 ------- null}
r -t 0.49112 -s 5 -d 2 -p cbr -e 210 -c 0 -i 24 -a 0 -x {5.1 4194304.1 19 ------- null}
h -t 0.49112 -s 2 -d 9 -p cbr -e 210 -c 0 -i 24 -a 0 -x {5.1 4194304.1 19 ------- null}
r -t 0.491124 -s 9 -d 4 -p cbr -e 210 -c 0 -i 23 -a 0 -x {5.1 4194304.1 18 ------- null}
r -t 0.491124 -s 9 -d 3 -p cbr -e 210 -c 0 -i 23 -a 0 -x {5.1 4194304.1 18 ------- null}
r -t 0.491124 -s 9 -d 1 -p cbr -e 210 -c 0 -i 23 -a 0 -x {5.1 4194304.1 18 ------- null}
+ -t 0.491124 -s 1 -d 0 -p cbr -e 210 -c 0 -i 23 -a 0 -x {5.1 4194304.1 18 ------- null}
- -t 0.491124 -s 1 -d 0 -p cbr -e 210 -c 0 -i 23 -a 0 -x {5.1 4194304.1 18 ------- null}
h -t 0.491124 -s 1 -d 0 -p cbr -e 210 -c 0 -i 23 -a 0 -x {5.1 4194304.1 -1 ------- null}
+ -t 0.491124 -s 1 -d 7 -p cbr -e 210 -c 0 -i 23 -a 0 -x {5.1 4194304.1 18 ------- null}