V -t * -v 1.0a5 -a 0
A -t * -n 1 -p 0 -o 255 -c 30 -a 1
A -t * -h 1 -m 4194303 -s 8
n -t * -a 8 -s 8 -S UP -v circle -c black
n -t * -a 4 -s 4 -S UP -v circle -c black
n -t * -a 0 -s 0 -S UP -v circle -c red
n -t * -a 5 -s 5 -S UP -v circle -c black
n -t * -a 1 -s 1 -S UP -v circle -c black
n -t * -a 6 -s 6 -S UP -v circle -c black
n -t * -a 2 -s 2 -S UP -v circle -c black
n -t * -a 7 -s 7 -S UP -v circle -c black
n -t * -a 3 -s 3 -S UP -v circle -c black
l -t * -s 0 -d 8 -S UP -r 1500000 -D 0.01 -c black -o right
l -t * -s 1 -d 0 -S UP -r 1500000 -D 0.01 -c black -o 80deg
l -t * -s 1 -d 7 -S UP -r 1500000 -D 0.01 -c black -o left
l -t * -s 3 -d 0 -S UP -r 1500000 -D 0.01 -c black -o 100deg
l -t * -s 2 -d 5 -S UP -r 1500000 -D 0.01 -c black -o left
l -t * -s 4 -d 6 -S UP -r 1500000 -D 0.01 -c black -o right
X -t * -n 9 -r 2Mb -D 10ms -o left
L -t * -s 9 -d 1 -o up
L -t * -s 9 -d 2 -o down
L -t * -s 9 -d 3 -o up
L -t * -s 9 -d 4 -o down
n -t 0 -s 0 -S DLABEL -l RP -L ""
v -t 0 sim_annotation 0 1 Simulation starts
m -t 0.01 -s 6 -n m1 -c blue -h circle
+ -t 0.01 -s 6 -d 4 -p graft -e 80 -c 3 -i 0 -a 3 -x {6.0 4.0 -1 ------- null}
- -t 0.01 -s 6 -d 4 -p graft -e 80 -c 3 -i 0 -a 3 -x {6.0 4.0 -1 ------- null}
h -t 0.01 -s 6 -d 4 -p graft -e 80 -c 3 -i 0 -a 3 -x {6.0 4.0 -1 ------- null}
v -t 0.01 sim_annotation 0.01 2 Node 6 joins multicast group 1073741825
n -t 0.01 -s 6 -S DLABEL -l rcvr-1 -L ""
r -t 0.0204267 -s 6 -d 4 -p graft -e 80 -c 3 -i 0 -a 3 -x {6.0 4.0 -1 ------- null}
m -t 0.020426666666666669 -s 4 -n m2 -c red -h circle
h -t 0.0204267 -s 4 -d 9 -p graft -e 80 -c 3 -i 1 -a 3 -x {4.0 1.0 -1 ------- null}
m -t 0.025000000000000001 -s 7 -n m1 -c blue -h circle
+ -t 0.025 -s 7 -d 1 -p graft -e 80 -c 3 -i 2 -a 3 -x {7.0 1.0 -1 ------- null}
- -t 0.025 -s 7 -d 1 -p graft -e 80 -c 3 -i 2 -a 3 -x {7.0 1.0 -1 ------- null}
h -t 0.025 -s 7 -d 1 -p graft -e 80 -c 3 -i 2 -a 3 -x {7.0 1.0 -1 ------- null}
v -t 0.025000000000000001 sim_annotation 0.025000000000000001 3 Node 7 joins multicast group 1073741825
n -t 0.025000000000000001 -s 7 -S DLABEL -l rcvr-2 -L ""
r -t 0.0354267 -s 7 -d 1 -p graft -e 80 -c 3 -i 2 -a 3 -x {7.0 1.0 -1 ------- null}
m -t 0.035426666666666669 -s 1 -n m2 -c red -h circle
+ -t 0.0354267 -s 1 -d 0 -p graft -e 80 -c 3 -i 3 -a 3 -x {1.0 0.0 -1 ------- null}
- -t 0.0354267 -s 1 -d 0 -p graft -e 80 -c 3 -i 3 -a 3 -x {1.0 0.0 -1 ------- null}
h -t 0.0354267 -s 1 -d 0 -p graft -e 80 -c 3 -i 3 -a 3 -x {1.0 0.0 -1 ------- null}
r -t 0.0404307 -s 9 -d 1 -p graft -e 80 -c 3 -i 1 -a 3 -x {4.0 1.0 -1 ------- null}
r -t 0.0458533 -s 1 -d 0 -p graft -e 80 -c 3 -i 3 -a 3 -x {1.0 0.0 -1 ------- null}
m -t 0.045853333333333336 -s 0 -n m2 -c red -h circle
+ -t 0.05 -s 5 -d 2 -p cbr -e 210 -c 0 -i 4 -a 0 -x {5.1 4194304.1 0 ------- null}
- -t 0.05 -s 5 -d 2 -p cbr -e 210 -c 0 -i 4 -a 0 -x {5.1 4194304.1 0 ------- null}
h -t 0.05 -s 5 -d 2 -p cbr -e 210 -c 0 -i 4 -a 0 -x {5.1 4194304.1 -1 ------- null}
m -t 0.050000000000000003 -s 5 -n source -c black -h circle
v -t 0.050000000000000003 sim_annotation 0.050000000000000003 4 Source begins transmission
r -t 0.06112 -s 5 -d 2 -p cbr -e 210 -c 0 -i 4 -a 0 -x {5.1 4194304.1 0 ------- null}
h -t 0.06112 -s 2 -d 9 -p cbr -e 210 -c 0 -i 4 -a 0 -x {5.1 4194304.1 0 ------- null}
+ -t 0.07 -s 5 -d 2 -p cbr -e 210 -c 0 -i 5 -a 0 -x {5.1 4194304.1 1 ------- null}
- -t 0.07 -s 5 -d 2 -p cbr -e 210 -c 0 -i 5 -a 0 -x {5.1 4194304.1 1 ------- null}
h -t 0.07 -s 5 -d 2 -p cbr -e 210 -c 0 -i 5 -a 0 -x {5.1 4194304.1 -1 ------- null}
r -t 0.08112 -s 5 -d 2 -p cbr -e 210 -c 0 -i 5 -a 0 -x {5.1 4194304.1 1 ------- null}
h -t 0.08112 -s 2 -d 9 -p cbr -e 210 -c 0 -i 5 -a 0 -x {5.1 4194304.1 1 ------- null}
r -t 0.081124 -s 9 -d 4 -p cbr -e 210 -c 0 -i 4 -a 0 -x {5.1 4194304.1 0 ------- null}
+ -t 0.081124 -s 4 -d 6 -p cbr -e 210 -c 0 -i 4 -a 0 -x {5.1 4194304.1 0 ------- null}
- -t 0.081124 -s 4 -d 6 -p cbr -e 210 -c 0 -i 4 -a 0 -x {5.1 4194304.1 0 ------- null}
h -t 0.081124 -s 4 -d 6 -p cbr -e 210 -c 0 -i 4 -a 0 -x {5.1 4194304.1 -1 ------- null}
r -t 0.081124 -s 9 -d 3 -p cbr -e 210 -c 0 -i 4 -a 0 -x {5.1 4194304.1 0 ------- null}
r -t 0.081124 -s 9 -d 1 -p cbr -e 210 -c 0 -i 4 -a 0 -x {5.1 4194304.1 0 ------- null}
+ -t 0.081124 -s 1 -d 0 -p cbr -e 210 -c 0 -i 4 -a 0 -x {5.1 4194304.1 0 ------- null}
- -t 0.081124 -s 1 -d 0 -p cbr -e 210 -c 0 -i 4 -a 0 -x {5.1 4194304.1 0 ------- null}
h -t 0.081124 -s 1 -d 0 -p cbr -e 210 -c 0 -i 4 -a 0 -x {5.1 4194304.1 -1 ------- null}
+ -t 0.081124 -s 1 -d 7 -p cbr -e 210 -c 0 -i 4 -a 0 -x {5.1 4194304.1 0 ------- null}
- -t 0.081124 -s 1 -d 7 -p cbr -e 210 -c 0 -i 4 -a 0 -x {5.1 4194304.1 0 ------- null}
h -t 0.081124 -s 1 -d 7 -p cbr -e 210 -c 0 -i 4 -a 0 -x {5.1 4194304.1 -1 ------- null}
+ -t 0.09 -s 5 -d 2 -p cbr -e 210 -c 0 -i 6 -a 0 -x {5.1 4194304.1 2 ------- null}
- -t 0.09 -s 5 -d 2 -p cbr -e 210 -c 0 -i 6 -a 0 -x {5.1 4194304.1 2 ------- null}
h -t 0.09 -s 5 -d 2 -p cbr -e 210 -c 0 -i 6 -a 0 -x {5.1 4194304.1 -1 ------- null}
r -t 0.092244 -s 4 -d 6 -p cbr -e 210 -c 0 -i 4 -a 0 -x {5.1 4194304.1 0 ------- null}
r -t 0.092244 -s 1 -d 0 -p cbr -e 210 -c 0 -i 4 -a 0 -x {5.1 4194304.1 0 ------- null}
r -t 0.092244 -s 1 -d 7 -p cbr -e 210 -c 0 -i 4 -a 0 -x {5.1 4194304.1 0 ------- null}
r -t 0.10112 -s 5 -d 2 -p cbr -e 210 -c 0 -i 6 -a 0 -x {5.1 4194304.1 2 ------- null}
h -t 0.10112 -s 2 -d 9 -p cbr -e 210 -c 0 -i 6 -a 0 -x {5.1 4194304.1 2 ------- null}
r -t 0.101124 -s 9 -d 4 -p cbr -e 210 -c 0 -i 5 -a 0 -x {5.1 4194304.1 1 ------- null}
+ -t 0.101124 -s 4 -d 6 -p cbr -e 210 -c 0 -i 5 -a 0 -x {5.1 4194304.1 1 ------- null}
- -t 0.101124 -s 4 -d 6 -p cbr -e 210 -c 0 -i 5 -a 0 -x {5.1 4194304.1 1 ------- null}
h -t 0.101124 -s 4 -d 6 -p cbr -e 210 -c 0 -i 5 -a 0 -x {5.1 4194304.1 -1 ------- null}
r -t 0.101124 -s 9 -d 3 -p cbr -e 210 -c 0 -i 5 -a 0 -x {5.1 4194304.1 1 ------- null}
r -t 0.101124 -s 9 -d 1 -p cbr -e 210 -c 0 -i 5 -a 0 -x {5.1 4194304.1 1 ------- null}
+ -t 0.101124 -s 1 -d 0 -p cbr -e 210 -c 0 -i 5 -a 0 -x {5.1 4194304.1 1 ------- null}
- -t 0.101124 -s 1 -d 0 -p cbr -e 210 -c 0 -i 5 -a 0 -x {5.1 4194304.1 1 ------- null}
h -t 0.101124 -s 1 -d 0 -p cbr -e 210 -c 0 -i 5 -a 0 -x {5.1 4194304.1 -1 ------- null}
+ -t 0.101124 -s 1 -d 7 -p cbr -e 210 -c 0 -i 5 -a 0 -x {5.1 4194304.1 1 ------- null}
- -t 0.101124 -s 1 -d 7 -p cbr -e 210 -c 0 -i 5 -a 0 -x {5.1 4194304.1 1 ------- null}
h -t 0.101124 -s 1 -d 7 -p cbr -e 210 -c 0 -i 5 -a 0 -x {5.1 4194304.1 -1 ------- null}
+ -t 0.11 -s 5 -d 2 -p cbr -e 210 -c 0 -i 7 -a 0 -x {5.1 4194304.1 3 ------- null}
- -t 0.11 -s 5 -d 2 -p cbr -e 210 -c 0 -i 7 -a 0 -x {5.1 4194304.1 3 ------- null}
h -t 0.11 -s 5 -d 2 -p cbr -e 210 -c 0 -i 7 -a 0 -x {5.1 4194304.1 -1 ------- null}
r -t 0.112244 -s 4 -d 6 -p cbr -e 210 -c 0 -i 5 -a 0 -x {5.1 4194304.1 1 ------- null}
r -t 0.112244 -s 1 -d 0 -p cbr -e 210 -c 0 -i 5 -a 0 -x {5.1 4194304.1 1 ------- null}
r -t 0.112244 -s 1 -d 7 -p cbr -e 210 -c 0 -i 5 -a 0 -x {5.1 4194304.1 1 ------- null}
m -t 0.12 -s 8 -n m1 -c blue -h circle
+ -t 0.12 -s 8 -d 0 -p graft -e 80 -c 3 -i 8 -a 3 -x {8.0 0.0 -1 ------- null}
- -t 0.12 -s 8 -d 0 -p graft -e 80 -c 3 -i 8 -a 3 -x {8.0 0.0 -1 ------- null}
h -t 0.12 -s 8 -d 0 -p graft -e 80 -c 3 -i 8 -a 3 -x {8.0 0.0 -1 ------- null}
v -t 0.12 sim_annotation 0.12 5 Node 8 joins multicast group 1073741825
n -t 0.12 -s 8 -S DLABEL -l rcvr-3 -L ""
r -t 0.12112 -s 5 -d 2 -p cbr -e 210 -c 0 -i 7 -a 0 -x {5.1 4194304.1 3 ------- null}
h -t 0.12112 -s 2 -d 9 -p cbr -e 210 -c 0 -i 7 -a 0 -x {5.1 4194304.1 3 ------- null}
r -t 0.121124 -s 9 -d 4 -p cbr -e 210 -c 0 -i 6 -a 0 -x {5.1 4194304.1 2 ------- null}
+ -t 0.121124 -s 4 -d 6 -p cbr -e 210 -c 0 -i 6 -a 0 -x {5.1 4194304.1 2 ------- null}
- -t 0.121124 -s 4 -d 6 -p cbr -e 210 -c 0 -i 6 -a 0 -x {5.1 4194304.1 2 ------- null}
h -t 0.121124 -s 4 -d 6 -p cbr -e 210 -c 0 -i 6 -a 0 -x {5.1 4194304.1 -1 ------- null}
r -t 0.121124 -s 9 -d 3 -p cbr -e 210 -c 0 -i 6 -a 0 -x {5.1 4194304.1 2 ------- null}
r -t 0.121124 -s 9 -d 1 -p cbr -e 210 -c 0 -i 6 -a 0 -x {5.1 4194304.1 2 ------- null}
+ -t 0.121124 -s 1 -d 0 -p cbr -e 210 -c 0 -i 6 -a 0 -x {5.1 4194304.1 2 ------- null}
- -t 0.121124 -s 1 -d 0 -p cbr -e 210 -c 0 -i 6 -a 0 -x {5.1 4194304.1 2 ------- null}
h -t 0.121124 -s 1 -d 0 -p cbr -e 210 -c 0 -i 6 -a 0 -x {5.1 4194304.1 -1 ------- null}
+ -t 0.121124 -s 1 -d 7 -p cbr -e 210 -c 0 -i 6 -a 0 -x {5.1 4194304.1 2 ------- null}
- -t 0.121124 -s 1 -d 7 -p cbr -e 210 -c 0 -i 6 -a 0 -x {5.1 4194304.1 2 ------- null}
h -t 0.121124 -s 1 -d 7 -p cbr -e 210 -c 0 -i 6 -a 0 -x {5.1 4194304.1 -1 ------- null}
+ -t 0.13 -s 5 -d 2 -p cbr -e 210 -c 0 -i 9 -a 0 -x {5.1 4194304.1 4 ------- null}
- -t 0.13 -s 5 -d 2 -p cbr -e 210 -c 0 -i 9 -a 0 -x {5.1 4194304.1 4 ------- null}
h -t 0.13 -s 5 -d 2 -p cbr -e 210 -c 0 -i 9 -a 0 -x {5.1 4194304.1 -1 ------- null}
r -t 0.130427 -s 8 -d 0 -p graft -e 80 -c 3 -i 8 -a 3 -x {8.0 0.0 -1 ------- null}
r -t 0.132244 -s 4 -d 6 -p cbr -e 210 -c 0 -i 6 -a 0 -x {5.1 4194304.1 2 ------- null}
r -t 0.132244 -s 1 -d 0 -p cbr -e 210 -c 0 -i 6 -a 0 -x {5.1 4194304.1 2 ------- null}
+ -t 0.132244 -s 0 -d 8 -p cbr -e 210 -c 0 -i 6 -a 0 -x {5.1 4194304.1 2 ------- null}
- -t 0.132244 -s 0 -d 8 -p cbr -e 210 -c 0 -i 6 -a 0 -x {5.1 4194304.1 2 ------- null}
h -t 0.132244 -s 0 -d 8 -p cbr -e 210 -c 0 -i 6 -a 0 -x {5.1 4194304.1 -1 ------- null}
r -t 0.132244 -s 1 -d 7 -p cbr -e 210 -c 0 -i 6 -a 0 -x {5.1 4194304.1 2 ------- null}
r -t 0.14112 -s 5 -d 2 -p cbr -e 210 -c 0 -i 9 -a 0 -x {5.1 4194304.1 4 ------- null}
h -t 0.14112 -s 2 -d 9 -p cbr -e 210 -c 0 -i 9 -a 0 -x {5.1 4194304.1 4 ------- null}
r -t 0.141124 -s 9 -d 4 -p cbr -e 210 -c 0 -i 7 -a 0 -x {5.1 4194304.1 3 ------- null}
+ -t 0.141124 -s 4 -d 6 -p cbr -e 210 -c 0 -i 7 -a 0 -x {5.1 4194304.1 3 ------- null}
- -t 0.141124 -s 4 -d 6 -p cbr -e 210 -c 0 -i 7 -a 0 -x {5.1 4194304.1 3 ------- null}
h -t 0.141124 -s 4 -d 6 -p cbr -e 210 -c 0 -i 7 -a 0 -x {5.1 4194304.1 -1 ------- null}
r -t 0.141124 -s 9 -d 3 -p cbr -e 210 -c 0 -i 7 -a 0 -x {5.1 4194304.1 3 ------- null}
r -t 0.141124 -s 9 -d 1 -p cbr -e 210 -c 0 -i 7 -a 0 -x {5.1 4194304.1 3 ------- null}
+ -t 0.141124 -s 1 -d 0 -p cbr -e 210 -c 0 -i 7 -a 0 -x {5.1 4194304.1 3 ------- null}
- -t 0.141124 -s 1 -d 0 -p cbr -e 210 -c 0 -i 7 -a 0 -x {5.1 4194304.1 3 ------- null}
h -t 0.141124 -s 1 -d 0 -p cbr -e 210 -c 0 -i 7 -a 0 -x {5.1 4194304.1 -1 ------- null}
+ -t 0.141124 -s 1 -d 7 -p cbr -e 210 -c 0 -i 7 -a 0 -x {5.1 4194304.1 3 ------- null}
- -t 0.141124 -s 1 -d 7 -p cbr -e 210 -c 0 -i 7 -a 0 -x {5.1 4194304.1 3 ------- null}
h -t 0.141124 -s 1 -d 7 -p cbr -e 210 -c 0 -i 7 -a 0 -x {5.1 4194304.1 -1 ------- null}
r -t 0.143364 -s 0 -d 8 -p cbr -e 210 -c 0 -i 6 -a 0 -x {5.1 4194304.1 2 ------- null}
+ -t 0.15 -s 5 -d 2 -p cbr -e 210 -c 0 -i 10 -a 0 -x {5.1 4194304.1 5 ------- null}
- -t 0.15 -s 5 -d 2 -p cbr -e 210 -c 0 -i 10 -a 0 -x {5.1 4194304.1 5 ------- null}
h -t 0.15 -s 5 -d 2 -p cbr -e 210 -c 0 -i 10 -a 0 -x {5.1 4194304.1 -1 ------- null}
r -t 0.152244 -s 4 -d 6 -p cbr -e 210 -c 0 -i 7 -a 0 -x {5.1 4194304.1 3 ------- null}
r -t 0.152244 -s 1 -d 0 -p cbr -e 210 -c 0 -i 7 -a 0 -x {5.1 4194304.1 3 ------- null}
+ -t 0.152244 -s 0 -d 8 -p cbr -e 210 -c 0 -i 7 -a 0 -x {5.1 4194304.1 3 ------- null}
- -t 0.152244 -s 0 -d 8 -p cbr -e 210 -c 0 -i 7 -a 0 -x {5.1 4194304.1 3 ------- null}
h -t 0.152244 -s 0 -d 8 -p cbr -e 210 -c 0 -i 7 -a 0 -x {5.1 4194304.1 -1 ------- null}
r -t 0.152244 -s 1 -d 7 -p cbr -e 210 -c 0 -i 7 -a 0 -x {5.1 4194304.1 3 ------- null}
r -t 0.16112 -s 5 -d 2 -p cbr -e 210 -c 0 -i 10 -a 0 -x {5.1 4194304.1 5 ------- null}
h -t 0.16112 -s 2 -d 9 -p cbr -e 210 -c 0 -i 10 -a 0 -x {5.1 4194304.1 5 ------- null}
r -t 0.161124 -s 9 -d 4 -p cbr -e 210 -c 0 -i 9 -a 0 -x {5.1 4194304.1 4 ------- null}
+ -t 0.161124 -s 4 -d 6 -p cbr -e 210 -c 0 -i 9 -a 0 -x {5.1 4194304.1 4 ------- null}
- -t 0.161124 -s 4 -d 6 -p cbr -e 210 -c 0 -i 9 -a 0 -x {5.1 4194304.1 4 ------- null}
h -t 0.161124 -s 4 -d 6 -p cbr -e 210 -c 0 -i 9 -a 0 -x {5.1 4194304.1 -1 ------- null}
r -t 0.161124 -s 9 -d 3 -p cbr -e 210 -c 0 -i 9 -a 0 -x {5.1 4194304.1 4 ------- null}
r -t 0.161124 -s 9 -d 1 -p cbr -e 210 -c 0 -i 9 -a 0 -x {5.1 4194304.1 4 ------- null}
+ -t 0.161124 -s 1 -d 0 -p cbr -e 210 -c 0 -i 9 -a 0 -x {5.1 4194304.1 4 ------- null}
- -t 0.161124 -s 1 -d 0 -p cbr -e 210 -c 0 -i 9 -a 0 -x {5.1 4194304.1 4 ------- null}
h -t 0.161124 -s 1 -d 0 -p cbr -e 210 -c 0 -i 9 -a 0 -x {5.1 4194304.1 -1 ------- null}
+ -t 0.161124 -s 1 -d 7 -p cbr -e 210 -c 0 -i 9 -a 0 -x {5.1 4194304.1 4 ------- null}
- -t 0.161124 -s 1 -d 7 -p cbr -e 210 -c 0 -i 9 -a 0 -x {5.1 4194304.1 4 ------- null}
h -t 0.161124 -s 1 -d 7 -p cbr -e 210 -c 0 -i 9 -a 0 -x {5.1 4194304.1 -1 ------- null}
r -t 0.163364 -s 0 -d 8 -p cbr -e 210 -c 0 -i 7 -a 0 -x {5.1 4194304.1 3 ------- null}
+ -t 0.17 -s 5 -d 2 -p cbr -e 210 -c 0 -i 11 -a 0 -x {5.1 4194304.1 6 ------- null}
- -t 0.17 -s 5 -d 2 -p cbr -e 210 -c 0 -i 11 -a 0 -x {5.1 4194304.1 6 ------- null}
h -t 0.17 -s 5 -d 2 -p cbr -e 210 -c 0 -i 11 -a 0 -x {5.1 4194304.1 -1 ------- null}
r -t 0.172244 -s 4 -d 6 -p cbr -e 210 -c 0 -i 9 -a 0 -x {5.1 4194304.1 4 ------- null}
r -t 0.172244 -s 1 -d 0 -p cbr -e 210 -c 0 -i 9 -a 0 -x {5.1 4194304.1 4 ------- null}
+ -t 0.172244 -s 0 -d 8 -p cbr -e 210 -c 0 -i 9 -a 0 -x {5.1 4194304.1 4 ------- null}
- -t 0.172244 -s 0 -d 8 -p cbr -e 210 -c 0 -i 9 -a 0 -x {5.1 4194304.1 4 ------- null}
h -t 0.172244 -s 0 -d 8 -p cbr -e 210 -c 0 -i 9 -a 0 -x {5.1 4194304.1 -1 ------- null}
r -t 0.172244 -s 1 -d 7 -p cbr -e 210 -c 0 -i 9 -a 0 -x {5.1 4194304.1 4 ------- null}
r -t 0.18112 -s 5 -d 2 -p cbr -e 210 -c 0 -i 11 -a 0 -x {5.1 4194304.1 6 ------- null}
h -t 0.18112 -s 2 -d 9 -p cbr -e 210 -c 0 -i 11 -a 0 -x {5.1 4194304.1 6 ------- null}
r -t 0.181124 -s 9 -d 4 -p cbr -e 210 -c 0 -i 10 -a 0 -x {5.1 4194304.1 5 ------- null}
+ -t 0.181124 -s 4 -d 6 -p cbr -e 210 -c 0 -i 10 -a 0 -x {5.1 4194304.1 5 ------- null}
- -t 0.181124 -s 4 -d 6 -p cbr -e 210 -c 0 -i 10 -a 0 -x {5.1 4194304.1 5 ------- null}
h -t 0.181124 -s 4 -d 6 -p cbr -e 210 -c 0 -i 10 -a 0 -x {5.1 4194304.1 -1 ------- null}
r -t 0.181124 -s 9 -d 3 -p cbr -e 210 -c 0 -i 10 -a 0 -x {5.1 4194304.1 5 ------- null}
r -t 0.181124 -s 9 -d 1 -p cbr -e 210 -c 0 -i 10 -a 0 -x {5.1 4194304.1 5 ------- null}
+ -t 0.181124 -s 1 -d 0 -p cbr -e 210 -c 0 -i 10 -a 0 -x {5.1 4194304.1 5 ------- null}
- -t 0.181124 -s 1 -d 0 -p cbr -e 210 -c 0 -i 10 -a 0 -x {5.1 4194304.1 5 ------- null}
h -t 0.181124 -s 1 -d 0 -p cbr -e 210 -c 0 -i 10 -a 0 -x {5.1 4194304.1 -1 ------- null}
+ -t 0.181124 -s 1 -d 7 -p cbr -e 210 -c 0 -i 10 -a 0 -x {5.1 4194304.1 5 ------- null}
- -t 0.181124 -s 1 -d 7 -p cbr -e 210 -c 0 -i 10 -a 0 -x {5.1 4194304.1 5 ------- null}
h -t 0.181124 -s 1 -d 7 -p cbr -e 210 -c 0 -i 10 -a 0 -x {5.1 4194304.1 -1 ------- null}
r -t 0.183364 -s 0 -d 8 -p cbr -e 210 -c 0 -i 9 -a 0 -x {5.1 4194304.1 4 ------- null}
+ -t 0.19 -s 5 -d 2 -p cbr -e 210 -c 0 -i 12 -a 0 -x {5.1 4194304.1 7 ------- null}
- -t 0.19 -s 5 -d 2 -p cbr -e 210 -c 0 -i 12 -a 0 -x {5.1 4194304.1 7 ------- null}
h -t 0.19 -s 5 -d 2 -p cbr -e 210 -c 0 -i 12 -a 0 -x {5.1 4194304.1 -1 ------- null}
r -t 0.192244 -s 4 -d 6 -p cbr -e 210 -c 0 -i 10 -a 0 -x {5.1 4194304.1 5 ------- null}
r -t 0.192244 -s 1 -d 0 -p cbr -e 210 -c 0 -i 10 -a 0 -x {5.1 4194304.1 5 ------- null}
+ -t 0.192244 -s 0 -d 8 -p cbr -e 210 -c 0 -i 10 -a 0 -x {5.1 4194304.1 5 ------- null}
- -t 0.192244 -s 0 -d 8 -p cbr -e 210 -c 0 -i 10 -a 0 -x {5.1 4194304.1 5 ------- null}
h -t 0.192244 -s 0 -d 8 -p cbr -e 210 -c 0 -i 10 -a 0 -x {5.1 4194304.1 -1 ------- null}
r -t 0.192244 -s 1 -d 7 -p cbr -e 210 -c 0 -i 10 -a 0 -x {5.1 4194304.1 5 ------- null}
r -t 0.20112 -s 5 -d 2 -p cbr -e 210 -c 0 -i 12 -a 0 -x {5.1 4194304.1 7 ------- null}
h -t 0.20112 -s 2 -d 9 -p cbr -e 210 -c 0 -i 12 -a 0 -x {5.1 4194304.1 7 ------- null}
r -t 0.201124 -s 9 -d 4 -p cbr -e 210 -c 0 -i 11 -a 0 -x {5.1 4194304.1 6 ------- null}
+ -t 0.201124 -s 4 -d 6 -p cbr -e 210 -c 0 -i 11 -a 0 -x {5.1 4194304.1 6 ------- null}
- -t 0.201124 -s 4 -d 6 -p cbr -e 210 -c 0 -i 11 -a 0 -x {5.1 4194304.1 6 ------- null}
h -t 0.201124 -s 4 -d 6 -p cbr -e 210 -c 0 -i 11 -a 0 -x {5.1 4194304.1 -1 ------- null}
r -t 0.201124 -s 9 -d 3 -p cbr -e 210 -c 0 -i 11 -a 0 -x {5.1 4194304.1 6 ------- null}
r -t 0.201124 -s 9 -d 1 -p cbr -e 210 -c 0 -i 11 -a 0 -x {5.1 4194304.1 6 ------- null}
+ -t 0.201124 -s 1 -d 0 -p cbr -e 210 -c 0 -i 11 -a 0 -x {5.1 4194304.1 6 ------- null}
- -t 0.201124 -s 1 -d 0 -p cbr -e 210 -c 0 -i 11 -a 0 -x {5.1 4194304.1 6 ------- null}
h -t 0.201124 -s 1 -d 0 -p cbr -e 210 -c 0 -i 11 -a 0 -x {5.1 4194304.1 -1 ------- null}
+ -t 0.201124 -s 1 -d 7 -p cbr -e 210 -c 0 -i 11 -a 0 -x {5.1 4194304.1 6 ------- null}
- -t 0.201124 -s 1 -d 7 -p cbr -e 210 -c 0 -i 11 -a 0 -x {5.1 4194304.1 6 ------- null}
h -t 0.201124 -s 1 -d 7 -p cbr -e 210 -c 0 -i 11 -a 0 -x {5.1 4194304.1 -1 ------- null}
r -t 0.203364 -s 0 -d 8 -p cbr -e 210 -c 0 -i 10 -a 0 -x {5.1 4194304.1 5 ------- null}
+ -t 0.21 -s 5 -d 2 -p cbr -e 210 -c 0 -i 13 -a 0 -x {5.1 4194304.1 8 ------- null}
- -t 0.21 -s 5 -d 2 -p cbr -e 210 -c 0 -i 13 -a 0 -x {5.1 4194304.1 8 ------- null}
h -t 0.21 -s 5 -d 2 -p cbr -e 210 -c 0 -i 13 -a 0 -x {5.1 4194304.1 -1 ------- null}
r -t 0.212244 -s 4 -d 6 -p cbr -e 210 -c 0 -i 11 -a 0 -x {5.1 4194304.1 6 ------- null}
r -t 0.212244 -s 1 -d 0 -p cbr -e 210 -c 0 -i 11 -a 0 -x {5.1 4194304.1 6 ------- null}
+ -t 0.212244 -s 0 -d 8 -p cbr -e 210 -c 0 -i 11 -a 0 -x {5.1 4194304.1 6 ------- null}
- -t 0.212244 -s 0 -d 8 -p cbr -e 210 -c 0 -i 11 -a 0 -x {5.1 4194304.1 6 ------- null}
h -t 0.212244 -s 0 -d 8 -p cbr -e 210 -c 0 -i 11 -a 0 -x {5.1 4194304.1 -1 ------- null}
r -t 0.212244 -s 1 -d 7 -p cbr -e 210 -c 0 -i 11 -a 0 -x {5.1 4194304.1 6 ------- null}
r -t 0.22112 -s 5 -d 2 -p cbr -e 210 -c 0 -i 13 -a 0 -x {5.1 4194304.1 8 ------- null}
h -t 0.22112 -s 2 -d 9 -p cbr -e 210 -c 0 -i 13 -a 0 -x {5.1 4194304.1 8 ------- null}
r -t 0.221124 -s 9 -d 4 -p cbr -e 210 -c 0 -i 12 -a 0 -x {5.1 4194304.1 7 ------- null}
+ -t 0.221124 -s 4 -d 6 -p cbr -e 210 -c 0 -i 12 -a 0 -x {5.1 4194304.1 7 ------- null}
- -t 0.221124 -s 4 -d 6 -p cbr -e 210 -c 0 -i 12 -a 0 -x {5.1 4194304.1 7 ------- null}
h -t 0.221124 -s 4 -d 6 -p cbr -e 210 -c 0 -i 12 -a 0 -x {5.1 4194304.1 -1 ------- null}
r -t 0.221124 -s 9 -d 3 -p cbr -e 210 -c 0 -i 12 -a 0 -x {5.1 4194304.1 7 ------- null}
r -t 0.221124 -s 9 -d 1 -p cbr -e 210 -c 0 -i 12 -a 0 -x {5.1 4194304.1 7 ------- null}
+ -t 0.221124 -s 1 -d 0 -p cbr -e 210 -c 0 -i 12 -a 0 -x {5.1 4194304.1 7 ------- null}
- -t 0.221124 -s 1 -d 0 -p cbr -e 210 -c 0 -i 12 -a 0 -x {5.1 4194304.1 7 ------- null}
h -t 0.221124 -s 1 -d 0 -p cbr -e 210 -c 0 -i 12 -a 0 -x {5.1 4194304.1 -1 ------- null}
+ -t 0.221124 -s 1 -d 7 -p cbr -e 210 -c 0 -i 12 -a 0 -x {5.1 4194304.1 7 ------- null}
- -t 0.221124 -s 1 -d 7 -p cbr -e 210 -c 0 -i 12 -a 0 -x {5.1 4194304.1 7 ------- null}
h -t 0.221124 -s 1 -d 7 -p cbr -e 210 -c 0 -i 12 -a 0 -x {5.1 4194304.1 -1 ------- null}
r -t 0.223364 -s 0 -d 8 -p cbr -e 210 -c 0 -i 11 -a 0 -x {5.1 4194304.1 6 ------- null}
+ -t 0.23 -s 5 -d 2 -p cbr -e 210 -c 0 -i 14 -a 0 -x {5.1 4194304.1 9 ------- null}
- -t 0.23 -s 5 -d 2 -p cbr -e 210 -c 0 -i 14 -a 0 -x {5.1 4194304.1 9 ------- null}
h -t 0.23 -s 5 -d 2 -p cbr -e 210 -c 0 -i 14 -a 0 -x {5.1 4194304.1 -1 ------- null}
r -t 0.232244 -s 4 -d 6 -p cbr -e 210 -c 0 -i 12 -a 0 -x {5.1 4194304.1 7 ------- null}
r -t 0.232244 -s 1 -d 0 -p cbr -e 210 -c 0 -i 12 -a 0 -x {5.1 4194304.1 7 ------- null}
+ -t 0.232244 -s 0 -d 8 -p cbr -e 210 -c 0 -i 12 -a 0 -x {5.1 4194304.1 7 ------- null}
- -t 0.232244 -s 0 -d 8 -p cbr -e 210 -c 0 -i 12 -a 0 -x {5.1 4194304.1 7 ------- null}
h -t 0.232244 -s 0 -d 8 -p cbr -e 210 -c 0 -i 12 -a 0 -x {5.1 4194304.1 -1 ------- null}
r -t 0.232244 -s 1 -d 7 -p cbr -e 210 -c 0 -i 12 -a 0 -x {5.1 4194304.1 7 ------- null}
r -t 0.24112 -s 5 -d 2 -p cbr -e 210 -c 0 -i 14 -a 0 -x {5.1 4194304.1 9 ------- null}
h -t 0.24112 -s 2 -d 9 -p cbr -e 210 -c 0 -i 14 -a 0 -x {5.1 4194304.1 9 ------- null}
r -t 0.241124 -s 9 -d 4 -p cbr -e 210 -c 0 -i 13 -a 0 -x {5.1 4194304.1 8 ------- null}
+ -t 0.241124 -s 4 -d 6 -p cbr -e 210 -c 0 -i 13 -a 0 -x {5.1 4194304.1 8 ------- null}
- -t 0.241124 -s 4 -d 6 -p cbr -e 210 -c 0 -i 13 -a 0 -x {5.1 4194304.1 8 ------- null}
h -t 0.241124 -s 4 -d 6 -p cbr -e 210 -c 0 -i 13 -a 0 -x {5.1 4194304.1 -1 ------- null}
r -t 0.241124 -s 9 -d 3 -p cbr -e 210 -c 0 -i 13 -a 0 -x {5.1 4194304.1 8 ------- null}
r -t 0.241124 -s 9 -d 1 -p cbr -e 210 -c 0 -i 13 -a 0 -x {5.1 4194304.1 8 ------- null}
+ -t 0.241124 -s 1 -d 0 -p cbr -e 210 -c 0 -i 13 -a 0 -x {5.1 4194304.1 8 ------- null}
- -t 0.241124 -s 1 -d 0 -p cbr -e 210 -c 0 -i 13 -a 0 -x {5.1 4194304.1 8 ------- null}
h -t 0.241124 -s 1 -d 0 -p cbr -e 210 -c 0 -i 13 -a 0 -x {5.1 4194304.1 -1 ------- null}
+ -t 0.241124 -s 1 -d 7 -p cbr -e 210 -c 0 -i 13 -a 0 -x {5.1 4194304.1 8 ------- null}
- -t 0.241124 -s 1 -d 7 -p cbr -e 210 -c 0 -i 13 -a 0 -x {5.1 4194304.1 8 ------- null}
h -t 0.241124 -s 1 -d 7 -p cbr -e 210 -c 0 -i 13 -a 0 -x {5.1 4194304.1 -1 ------- null}
r -t 0.243364 -s 0 -d 8 -p cbr -e 210 -c 0 -i 12 -a 0 -x {5.1 4194304.1 7 ------- null}
+ -t 0.25 -s 5 -d 2 -p cbr -e 210 -c 0 -i 15 -a 0 -x {5.1 4194304.1 10 ------- null}
- -t 0.25 -s 5 -d 2 -p cbr -e 210 -c 0 -i 15 -a 0 -x {5.1 4194304.1 10 ------- null}
h -t 0.25 -s 5 -d 2 -p cbr -e 210 -c 0 -i 15 -a 0 -x {5.1 4194304.1 -1 ------- null}
r -t 0.252244 -s 4 -d 6 -p cbr -e 210 -c 0 -i 13 -a 0 -x {5.1 4194304.1 8 ------- null}
r -t 0.252244 -s 1 -d 0 -p cbr -e 210 -c 0 -i 13 -a 0 -x {5.1 4194304.1 8 ------- null}
+ -t 0.252244 -s 0 -d 8 -p cbr -e 210 -c 0 -i 13 -a 0 -x {5.1 4194304.1 8 ------- null}
- -t 0.252244 -s 0 -d 8 -p cbr -e 210 -c 0 -i 13 -a 0 -x {5.1 4194304.1 8 ------- null}
h -t 0.252244 -s 0 -d 8 -p cbr -e 210 -c 0 -i 13 -a 0 -x {5.1 4194304.1 -1 ------- null}
r -t 0.252244 -s 1 -d 7 -p cbr -e 210 -c 0 -i 13 -a 0 -x {5.1 4194304.1 8 ------- null}
r -t 0.26112 -s 5 -d 2 -p cbr -e 210 -c 0 -i 15 -a 0 -x {5.1 4194304.1 10 ------- null}
h -t 0.26112 -s 2 -d 9 -p cbr -e 210 -c 0 -i 15 -a 0 -x {5.1 4194304.1 10 ------- null}
r -t 0.261124 -s 9 -d 4 -p cbr -e 210 -c 0 -i 14 -a 0 -x {5.1 4194304.1 9 ------- null}
+ -t 0.261124 -s 4 -d 6 -p cbr -e 210 -c 0 -i 14 -a 0 -x {5.1 4194304.1 9 ------- null}
- -t 0.261124 -s 4 -d 6 -p cbr -e 210 -c 0 -i 14 -a 0 -x {5.1 4194304.1 9 ------- null}
h -t 0.261124 -s 4 -d 6 -p cbr -e 210 -c 0 -i 14 -a 0 -x {5.1 4194304.1 -1 ------- null}
r -t 0.261124 -s 9 -d 3 -p cbr -e 210 -c 0 -i 14 -a 0 -x {5.1 4194304.1 9 ------- null}
r -t 0.261124 -s 9 -d 1 -p cbr -e 210 -c 0 -i 14 -a 0 -x {5.1 4194304.1 9 ------- null}
+ -t 0.261124 -s 1 -d 0 -p cbr -e 210 -c 0 -i 14 -a 0 -x {5.1 4194304.1 9 ------- null}
- -t 0.261124 -s 1 -d 0 -p cbr -e 210 -c 0 -i 14 -a 0 -x {5.1 4194304.1 9 ------- null}
h -t 0.261124 -s 1 -d 0 -p cbr -e 210 -c 0 -i 14 -a 0 -x {5.1 4194304.1 -1 ------- null}
+ -t 0.261124 -s 1 -d 7 -p cbr -e 210 -c 0 -i 14 -a 0 -x {5.1 4194304.1 9 ------- null}
- -t 0.261124 -s 1 -d 7 -p cbr -e 210 -c 0 -i 14 -a 0 -x {5.1 4194304.1 9 ------- null}
h -t 0.261124 -s 1 -d 7 -p cbr -e 210 -c 0 -i 14 -a 0 -x {5.1 4194304.1 -1 ------- null}
r -t 0.263364 -s 0 -d 8 -p cbr -e 210 -c 0 -i 13 -a 0 -x {5.1 4194304.1 8 ------- null}
+ -t 0.27 -s 5 -d 2 -p cbr -e 210 -c 0 -i 16 -a 0 -x {5.1 4194304.1 11 ------- null}
- -t 0.27 -s 5 -d 2 -p cbr -e 210 -c 0 -i 16 -a 0 -x {5.1 4194304.1 11 ------- null}
h -t 0.27 -s 5 -d 2 -p cbr -e 210 -c 0 -i 16 -a 0 -x {5.1 4194304.1 -1 ------- null}
r -t 0.272244 -s 4 -d 6 -p cbr -e 210 -c 0 -i 14 -a 0 -x {5.1 4194304.1 9 ------- null}
r -t 0.272244 -s 1 -d 0 -p cbr -e 210 -c 0 -i 14 -a 0 -x {5.1 4194304.1 9 ------- null}
+ -t 0.272244 -s 0 -d 8 -p cbr -e 210 -c 0 -i 14 -a 0 -x {5.1 4194304.1 9 ------- null}
- -t 0.272244 -s 0 -d 8 -p cbr -e 210 -c 0 -i 14 -a 0 -x {5.1 4194304.1 9 ------- null}
h -t 0.272244 -s 0 -d 8 -p cbr -e 210 -c 0 -i 14 -a 0 -x {5.1 4194304.1 -1 ------- null}
r -t 0.272244 -s 1 -d 7 -p cbr -e 210 -c 0 -i 14 -a 0 -x {5.1 4194304.1 9 ------- null}
r -t 0.28112 -s 5 -d 2 -p cbr -e 210 -c 0 -i 16 -a 0 -x {5.1 4194304.1 11 ------- null}
h -t 0.28112 -s 2 -d 9 -p cbr -e 210 -c 0 -i 16 -a 0 -x {5.1 4194304.1 11 ------- null}
r -t 0.281124 -s 9 -d 4 -p cbr -e 210 -c 0 -i 15 -a 0 -x {5.1 4194304.1 10 ------- null}
+ -t 0.281124 -s 4 -d 6 -p cbr -e 210 -c 0 -i 15 -a 0 -x {5.1 4194304.1 10 ------- null}
- -t 0.281124 -s 4 -d 6 -p cbr -e 210 -c 0 -i 15 -a 0 -x {5.1 4194304.1 10 ------- null}
h -t 0.281124 -s 4 -d 6 -p cbr -e 210 -c 0 -i 15 -a 0 -x {5.1 4194304.1 -1 ------- null}
r -t 0.281124 -s 9 -d 3 -p cbr -e 210 -c 0 -i 15 -a 0 -x {5.1 4194304.1 10 ------- null}
r -t 0.281124 -s 9 -d 1 -p cbr -e 210 -c 0 -i 15 -a 0 -x {5.1 4194304.1 10 ------- null}
+ -t 0.281124 -s 1 -d 0 -p cbr -e 210 -c 0 -i 15 -a 0 -x {5.1 4194304.1 10 ------- null}
- -t 0.281124 -s 1 -d 0 -p cbr -e 210 -c 0 -i 15 -a 0 -x {5.1 4194304.1 10 ------- null}
h -t 0.281124 -s 1 -d 0 -p cbr -e 210 -c 0 -i 15 -a 0 -x {5.1 4194304.1 -1 ------- null}
+ -t 0.281124 -s 1 -d 7 -p cbr -e 210 -c 0 -i 15 -a 0 -x {5.1 4194304.1 10 ------- null}
- -t 0.281124 -s 1 -d 7 -p cbr -e 210 -c 0 -i 15 -a 0 -x {5.1 4194304.1 10 ------- null}
h -t 0.281124 -s 1 -d 7 -p cbr -e 210 -c 0 -i 15 -a 0 -x {5.1 4194304.1 -1 ------- null}
r -t 0.283364 -s 0 -d 8 -p cbr -e 210 -c 0 -i 14 -a 0 -x {5.1 4194304.1 9 ------- null}
+ -t 0.29 -s 5 -d 2 -p cbr -e 210 -c 0 -i 17 -a 0 -x {5.1 4194304.1 12 ------- null}
- -t 0.29 -s 5 -d 2 -p cbr -e 210 -c 0 -i 17 -a 0 -x {5.1 4194304.1 12 ------- null}
h -t 0.29 -s 5 -d 2 -p cbr -e 210 -c 0 -i 17 -a 0 -x {5.1 4194304.1 -1 ------- null}
r -t 0.292244 -s 4 -d 6 -p cbr -e 210 -c 0 -i 15 -a 0 -x {5.1 4194304.1 10 ------- null}
r -t 0.292244 -s 1 -d 0 -p cbr -e 210 -c 0 -i 15 -a 0 -x {5.1 4194304.1 10 ------- null}
+ -t 0.292244 -s 0 -d 8 -p cbr -e 210 -c 0 -i 15 -a 0 -x {5.1 4194304.1 10 ------- null}
- -t 0.292244 -s 0 -d 8 -p cbr -e 210 -c 0 -i 15 -a 0 -x {5.1 4194304.1 10 ------- null}
h -t 0.292244 -s 0 -d 8 -p cbr -e 210 -c 0 -i 15 -a 0 -x {5.1 4194304.1 -1 ------- null}
r -t 0.292244 -s 1 -d 7 -p cbr -e 210 -c 0 -i 15 -a 0 -x {5.1 4194304.1 10 ------- null}
r -t 0.30112 -s 5 -d 2 -p cbr -e 210 -c 0 -i 17 -a 0 -x {5.1 4194304.1 12 ------- null}
h -t 0.30112 -s 2 -d 9 -p cbr -e 210 -c 0 -i 17 -a 0 -x {5.1 4194304.1 12 ------- null}
r -t 0.301124 -s 9 -d 4 -p cbr -e 210 -c 0 -i 16 -a 0 -x {5.1 4194304.1 11 ------- null}
+ -t 0.301124 -s 4 -d 6 -p cbr -e 210 -c 0 -i 16 -a 0 -x {5.1 4194304.1 11 ------- null}
- -t 0.301124 -s 4 -d 6 -p cbr -e 210 -c 0 -i 16 -a 0 -x {5.1 4194304.1 11 ------- null}
h -t 0.301124 -s 4 -d 6 -p cbr -e 210 -c 0 -i 16 -a 0 -x {5.1 4194304.1 -1 ------- null}
r -t 0.301124 -s 9 -d 3 -p cbr -e 210 -c 0 -i 16 -a 0 -x {5.1 4194304.1 11 ------- null}
r -t 0.301124 -s 9 -d 1 -p cbr -e 210 -c 0 -i 16 -a 0 -x {5.1 4194304.1 11 ------- null}
+ -t 0.301124 -s 1 -d 0 -p cbr -e 210 -c 0 -i 16 -a 0 -x {5.1 4194304.1 11 ------- null}
- -t 0.301124 -s 1 -d 0 -p cbr -e 210 -c 0 -i 16 -a 0 -x {5.1 4194304.1 11 ------- null}
h -t 0.301124 -s 1 -d 0 -p cbr -e 210 -c 0 -i 16 -a 0 -x {5.1 4194304.1 -1 ------- null}
+ -t 0.301124 -s 1 -d 7 -p cbr -e 210 -c 0 -i 16 -a 0 -x {5.1 4194304.1 11 ------- null}
- -t 0.301124 -s 1 -d 7 -p cbr -e 210 -c 0 -i 16 -a 0 -x {5.1 4194304.1 11 ------- null}
h -t 0.301124 -s 1 -d 7 -p cbr -e 210 -c 0 -i 16 -a 0 -x {5.1 4194304.1 -1 ------- null}
r -t 0.303364 -s 0 -d 8 -p cbr -e 210 -c 0 -i 15 -a 0 -x {5.1 4194304.1 10 ------- null}
+ -t 0.31 -s 5 -d 2 -p cbr -e 210 -c 0 -i 18 -a 0 -x {5.1 4194304.1 13 ------- null}
- -t 0.31 -s 5 -d 2 -p cbr -e 210 -c 0 -i 18 -a 0 -x {5.1 4194304.1 13 ------- null}
h -t 0.31 -s 5 -d 2 -p cbr -e 210 -c 0 -i 18 -a 0 -x {5.1 4194304.1 -1 ------- null}
r -t 0.312244 -s 4 -d 6 -p cbr -e 210 -c 0 -i 16 -a 0 -x {5.1 4194304.1 11 ------- null}
r -t 0.312244 -s 1 -d 0 -p cbr -e 210 -c 0 -i 16 -a 0 -x {5.1 4194304.1 11 ------- null}
+ -t 0.312244 -s 0 -d 8 -p cbr -e 210 -c 0 -i 16 -a 0 -x {5.1 4194304.1 11 ------- null}
- -t 0.312244 -s 0 -d 8 -p cbr -e 210 -c 0 -i 16 -a 0 -x {5.1 4194304.1 11 ------- null}
h -t 0.312244 -s 0 -d 8 -p cbr -e 210 -c 0 -i 16 -a 0 -x {5.1 4194304.1 -1 ------- null}
r -t 0.312244 -s 1 -d 7 -p cbr -e 210 -c 0 -i 16 -a 0 -x {5.1 4194304.1 11 ------- null}
r -t 0.32112 -s 5 -d 2 -p cbr -e 210 -c 0 -i 18 -a 0 -x {5.1 4194304.1 13 ------- null}
h -t 0.32112 -s 2 -d 9 -p cbr -e 210 -c 0 -i 18 -a 0 -x {5.1 4194304.1 13 ------- null}
r -t 0.321124 -s 9 -d 4 -p cbr -e 210 -c 0 -i 17 -a 0 -x {5.1 4194304.1 12 ------- null}
+ -t 0.321124 -s 4 -d 6 -p cbr -e 210 -c 0 -i 17 -a 0 -x {5.1 4194304.1 12 ------- null}
- -t 0.321124 -s 4 -d 6 -p cbr -e 210 -c 0 -i 17 -a 0 -x {5.1 4194304.1 12 ------- null}
h -t 0.321124 -s 4 -d 6 -p cbr -e 210 -c 0 -i 17 -a 0 -x {5.1 4194304.1 -1 ------- null}
r -t 0.321124 -s 9 -d 3 -p cbr -e 210 -c 0 -i 17 -a 0 -x {5.1 4194304.1 12 ------- null}
r -t 0.321124 -s 9 -d 1 -p cbr -e 210 -c 0 -i 17 -a 0 -x {5.1 4194304.1 12 ------- null}
+ -t 0.321124 -s 1 -d 0 -p cbr -e 210 -c 0 -i 17 -a 0 -x {5.1 4194304.1 12 ------- null}
- -t 0.321124 -s 1 -d 0 -p cbr -e 210 -c 0 -i 17 -a 0 -x {5.1 4194304.1 12 ------- null}
h -t 0.321124 -s 1 -d 0 -p cbr -e 210 -c 0 -i 17 -a 0 -x {5.1 4194304.1 -1 ------- null}
+ -t 0.321124 -s 1 -d 7 -p cbr -e 210 -c 0 -i 17 -a 0 -x {5.1 4194304.1 12 ------- null}
- -t 0.321124 -s 1 -d 7 -p cbr -e 210 -c 0 -i 17 -a 0 -x {5.1 4194304.1 12 ------- null}
h -t 0.321124 -s 1 -d 7 -p cbr -e 210 -c 0 -i 17 -a 0 -x {5.1 4194304.1 -1 ------- null}
r -t 0.323364 -s 0 -d 8 -p cbr -e 210 -c 0 -i 16 -a 0 -x {5.1 4194304.1 11 ------- null}
+ -t 0.33 -s 5 -d 2 -p cbr -e 210 -c 0 -i 19 -a 0 -x {5.1 4194304.1 14 ------- null}
- -t 0.33 -s 5 -d 2 -p cbr -e 210 -c 0 -i 19 -a 0 -x {5.1 4194304.1 14 ------- null}
h -t 0.33 -s 5 -d 2 -p cbr -e 210 -c 0 -i 19 -a 0 -x {5.1 4194304.1 -1 ------- null}