m -t 0 -s 0 -n rp -c red -h circle
V -t * -v 1.0a5 -a 0
A -t * -n 1 -p 0 -o 255 -c 30 -a 1
A -t * -h 1 -m 4194303 -s 8
c -t * -i 4 -n brown
c -t * -i 0 -n black
c -t * -i 5 -n tan
c -t * -i 1 -n blue
c -t * -i 6 -n gold
c -t * -i 2 -n chocolate
c -t * -i 7 -n red
c -t * -i 3 -n red
n -t * -a 0 -s 0 -S UP -v circle -c black
n -t * -a 1 -s 1 -S UP -v hexagon -c black
n -t * -a 2 -s 2 -S UP -v circle -c black
n -t * -a 3 -s 3 -S UP -v hexagon -c black
n -t * -a 4 -s 4 -S UP -v hexagon -c black
n -t * -a 5 -s 5 -S UP -v hexagon -c black
n -t * -a 6 -s 6 -S UP -v circle -c black
n -t * -a 7 -s 7 -S UP -v circle -c black
n -t * -a 8 -s 8 -S UP -v circle -c black
n -t * -a 9 -s 9 -S UP -v circle -c black
n -t * -a 10 -s 10 -S UP -v box -c black
n -t * -a 11 -s 11 -S UP -v circle -c black
n -t * -a 12 -s 12 -S UP -v hexagon -c black
n -t * -a 13 -s 13 -S UP -v box -c black
l -t * -s 0 -d 1 -S UP -r 1500000 -D 0.01 -c black -o left
l -t * -s 0 -d 2 -S UP -r 1500000 -D 0.01 -c black -o right
l -t * -s 0 -d 6 -S UP -r 1500000 -D 0.01 -c black -o down
l -t * -s 6 -d 7 -S UP -r 1500000 -D 0.01 -c black -o 260deg
l -t * -s 6 -d 9 -S UP -r 1500000 -D 0.01 -c black -o 280deg
l -t * -s 9 -d 11 -S UP -r 1500000 -D 0.01 -c black -o right
l -t * -s 11 -d 12 -S UP -r 1500000 -D 0.01 -c black -o down
X -t * -n 14 -r 2Mb -D 10ms -o left
L -t * -s 14 -d 2 -o up
L -t * -s 14 -d 3 -o down
L -t * -s 14 -d 4 -o down
L -t * -s 14 -d 5 -o down
L -t * -s 14 -d 13 -o down
X -t * -n 15 -r 2Mb -D 10ms -o left
L -t * -s 15 -d 7 -o up
L -t * -s 15 -d 8 -o down
L -t * -s 15 -d 9 -o up
L -t * -s 15 -d 10 -o down
n -t 0 -s 0 -S DLABEL -l RP -L ""
n -t 0 -s 2 -S DLABEL -l dino-cisco-4500 -L ""
n -t 0 -s 3 -S DLABEL -l dino-laptop -L ""
n -t 0 -s 4 -S DLABEL -l dino-ss2 -L ""
n -t 0 -s 5 -S DLABEL -l dino-ultra -L ""
n -t 0 -s 6 -S DLABEL -l slimy -L ""
n -t 0 -s 7 -S DLABEL -l dirty -L ""
n -t 0 -s 9 -S DLABEL -l nasty -L ""
n -t 0 -s 8 -S DLABEL -l stinky -L ""
n -t 0 -s 10 -S DLABEL -l sleazy -L ""
n -t 0 -s 11 -S DLABEL -l kangpa -L ""
n -t 0 -s 12 -S DLABEL -l kiewwan-receiver -L ""
h -t 0.025 -s 10 -d 15 -p cbr -e 210 -c 4 -i 0 -a 4 -x {10.1 4194304.1 0 ------- null}
m -t 0.025000000000000001 -s 10 -n send -c brown -h circle
h -t 0.045 -s 10 -d 15 -p cbr -e 210 -c 4 -i 1 -a 4 -x {10.1 4194304.1 1 ------- null}
r -t 0.045004 -s 15 -d 9 -p cbr -e 210 -c 4 -i 0 -a 4 -x {10.1 4194304.1 0 ------- null}
r -t 0.045004 -s 15 -d 8 -p cbr -e 210 -c 4 -i 0 -a 4 -x {10.1 4194304.1 0 ------- null}
r -t 0.045004 -s 15 -d 7 -p cbr -e 210 -c 4 -i 0 -a 4 -x {10.1 4194304.1 0 ------- null}
+ -t 0.045004 -s 7 -d 6 -p cbr -e 210 -c 4 -i 0 -a 4 -x {10.1 4194304.1 0 ------- null}
- -t 0.045004 -s 7 -d 6 -p cbr -e 210 -c 4 -i 0 -a 4 -x {10.1 4194304.1 0 ------- null}
h -t 0.045004 -s 7 -d 6 -p cbr -e 210 -c 4 -i 0 -a 4 -x {10.1 4194304.1 -1 ------- null}
r -t 0.056124 -s 7 -d 6 -p cbr -e 210 -c 4 -i 0 -a 4 -x {10.1 4194304.1 0 ------- null}
+ -t 0.056124 -s 6 -d 0 -p cbr -e 210 -c 4 -i 0 -a 4 -x {10.1 4194304.1 0 ------- null}
- -t 0.056124 -s 6 -d 0 -p cbr -e 210 -c 4 -i 0 -a 4 -x {10.1 4194304.1 0 ------- null}
h -t 0.056124 -s 6 -d 0 -p cbr -e 210 -c 4 -i 0 -a 4 -x {10.1 4194304.1 -1 ------- null}
h -t 0.065 -s 10 -d 15 -p cbr -e 210 -c 4 -i 2 -a 4 -x {10.1 4194304.1 2 ------- null}
r -t 0.065004 -s 15 -d 9 -p cbr -e 210 -c 4 -i 1 -a 4 -x {10.1 4194304.1 1 ------- null}
r -t 0.065004 -s 15 -d 8 -p cbr -e 210 -c 4 -i 1 -a 4 -x {10.1 4194304.1 1 ------- null}
r -t 0.065004 -s 15 -d 7 -p cbr -e 210 -c 4 -i 1 -a 4 -x {10.1 4194304.1 1 ------- null}
+ -t 0.065004 -s 7 -d 6 -p cbr -e 210 -c 4 -i 1 -a 4 -x {10.1 4194304.1 1 ------- null}
- -t 0.065004 -s 7 -d 6 -p cbr -e 210 -c 4 -i 1 -a 4 -x {10.1 4194304.1 1 ------- null}
h -t 0.065004 -s 7 -d 6 -p cbr -e 210 -c 4 -i 1 -a 4 -x {10.1 4194304.1 -1 ------- null}
r -t 0.067244 -s 6 -d 0 -p cbr -e 210 -c 4 -i 0 -a 4 -x {10.1 4194304.1 0 ------- null}
r -t 0.076124 -s 7 -d 6 -p cbr -e 210 -c 4 -i 1 -a 4 -x {10.1 4194304.1 1 ------- null}
+ -t 0.076124 -s 6 -d 0 -p cbr -e 210 -c 4 -i 1 -a 4 -x {10.1 4194304.1 1 ------- null}
- -t 0.076124 -s 6 -d 0 -p cbr -e 210 -c 4 -i 1 -a 4 -x {10.1 4194304.1 1 ------- null}
h -t 0.076124 -s 6 -d 0 -p cbr -e 210 -c 4 -i 1 -a 4 -x {10.1 4194304.1 -1 ------- null}
h -t 0.085 -s 10 -d 15 -p cbr -e 210 -c 4 -i 3 -a 4 -x {10.1 4194304.1 3 ------- null}
r -t 0.085004 -s 15 -d 9 -p cbr -e 210 -c 4 -i 2 -a 4 -x {10.1 4194304.1 2 ------- null}
r -t 0.085004 -s 15 -d 8 -p cbr -e 210 -c 4 -i 2 -a 4 -x {10.1 4194304.1 2 ------- null}
r -t 0.085004 -s 15 -d 7 -p cbr -e 210 -c 4 -i 2 -a 4 -x {10.1 4194304.1 2 ------- null}
+ -t 0.085004 -s 7 -d 6 -p cbr -e 210 -c 4 -i 2 -a 4 -x {10.1 4194304.1 2 ------- null}
- -t 0.085004 -s 7 -d 6 -p cbr -e 210 -c 4 -i 2 -a 4 -x {10.1 4194304.1 2 ------- null}
h -t 0.085004 -s 7 -d 6 -p cbr -e 210 -c 4 -i 2 -a 4 -x {10.1 4194304.1 -1 ------- null}
r -t 0.087244 -s 6 -d 0 -p cbr -e 210 -c 4 -i 1 -a 4 -x {10.1 4194304.1 1 ------- null}
r -t 0.096124 -s 7 -d 6 -p cbr -e 210 -c 4 -i 2 -a 4 -x {10.1 4194304.1 2 ------- null}
+ -t 0.096124 -s 6 -d 0 -p cbr -e 210 -c 4 -i 2 -a 4 -x {10.1 4194304.1 2 ------- null}
- -t 0.096124 -s 6 -d 0 -p cbr -e 210 -c 4 -i 2 -a 4 -x {10.1 4194304.1 2 ------- null}
h -t 0.096124 -s 6 -d 0 -p cbr -e 210 -c 4 -i 2 -a 4 -x {10.1 4194304.1 -1 ------- null}
m -t 0.10000000000000001 -s 1 -n m1 -c blue -h circle
+ -t 0.1 -s 1 -d 0 -p graft -e 80 -c 3 -i 4 -a 3 -x {1.0 0.0 -1 ------- null}
- -t 0.1 -s 1 -d 0 -p graft -e 80 -c 3 -i 4 -a 3 -x {1.0 0.0 -1 ------- null}
h -t 0.1 -s 1 -d 0 -p graft -e 80 -c 3 -i 4 -a 3 -x {1.0 0.0 -1 ------- null}
h -t 0.105 -s 10 -d 15 -p cbr -e 210 -c 4 -i 5 -a 4 -x {10.1 4194304.1 4 ------- null}
r -t 0.105004 -s 15 -d 9 -p cbr -e 210 -c 4 -i 3 -a 4 -x {10.1 4194304.1 3 ------- null}
r -t 0.105004 -s 15 -d 8 -p cbr -e 210 -c 4 -i 3 -a 4 -x {10.1 4194304.1 3 ------- null}
r -t 0.105004 -s 15 -d 7 -p cbr -e 210 -c 4 -i 3 -a 4 -x {10.1 4194304.1 3 ------- null}
+ -t 0.105004 -s 7 -d 6 -p cbr -e 210 -c 4 -i 3 -a 4 -x {10.1 4194304.1 3 ------- null}
- -t 0.105004 -s 7 -d 6 -p cbr -e 210 -c 4 -i 3 -a 4 -x {10.1 4194304.1 3 ------- null}
h -t 0.105004 -s 7 -d 6 -p cbr -e 210 -c 4 -i 3 -a 4 -x {10.1 4194304.1 -1 ------- null}
r -t 0.107244 -s 6 -d 0 -p cbr -e 210 -c 4 -i 2 -a 4 -x {10.1 4194304.1 2 ------- null}
r -t 0.110427 -s 1 -d 0 -p graft -e 80 -c 3 -i 4 -a 3 -x {1.0 0.0 -1 ------- null}
m -t 0.11042666666666667 -s 0 -n m2 -c red -h circle
r -t 0.116124 -s 7 -d 6 -p cbr -e 210 -c 4 -i 3 -a 4 -x {10.1 4194304.1 3 ------- null}
+ -t 0.116124 -s 6 -d 0 -p cbr -e 210 -c 4 -i 3 -a 4 -x {10.1 4194304.1 3 ------- null}
- -t 0.116124 -s 6 -d 0 -p cbr -e 210 -c 4 -i 3 -a 4 -x {10.1 4194304.1 3 ------- null}
h -t 0.116124 -s 6 -d 0 -p cbr -e 210 -c 4 -i 3 -a 4 -x {10.1 4194304.1 -1 ------- null}
m -t 0.125 -s 3 -n m1 -c blue -h circle
h -t 0.125 -s 3 -d 14 -p graft -e 80 -c 3 -i 6 -a 3 -x {3.0 2.0 -1 ------- null}
h -t 0.125 -s 10 -d 15 -p cbr -e 210 -c 4 -i 7 -a 4 -x {10.1 4194304.1 5 ------- null}
r -t 0.125004 -s 15 -d 9 -p cbr -e 210 -c 4 -i 5 -a 4 -x {10.1 4194304.1 4 ------- null}
r -t 0.125004 -s 15 -d 8 -p cbr -e 210 -c 4 -i 5 -a 4 -x {10.1 4194304.1 4 ------- null}
r -t 0.125004 -s 15 -d 7 -p cbr -e 210 -c 4 -i 5 -a 4 -x {10.1 4194304.1 4 ------- null}
+ -t 0.125004 -s 7 -d 6 -p cbr -e 210 -c 4 -i 5 -a 4 -x {10.1 4194304.1 4 ------- null}
- -t 0.125004 -s 7 -d 6 -p cbr -e 210 -c 4 -i 5 -a 4 -x {10.1 4194304.1 4 ------- null}
h -t 0.125004 -s 7 -d 6 -p cbr -e 210 -c 4 -i 5 -a 4 -x {10.1 4194304.1 -1 ------- null}
r -t 0.127244 -s 6 -d 0 -p cbr -e 210 -c 4 -i 3 -a 4 -x {10.1 4194304.1 3 ------- null}
+ -t 0.127244 -s 0 -d 1 -p cbr -e 210 -c 4 -i 3 -a 4 -x {10.1 4194304.1 3 ------- null}
- -t 0.127244 -s 0 -d 1 -p cbr -e 210 -c 4 -i 3 -a 4 -x {10.1 4194304.1 3 ------- null}
h -t 0.127244 -s 0 -d 1 -p cbr -e 210 -c 4 -i 3 -a 4 -x {10.1 4194304.1 -1 ------- null}
r -t 0.136124 -s 7 -d 6 -p cbr -e 210 -c 4 -i 5 -a 4 -x {10.1 4194304.1 4 ------- null}
+ -t 0.136124 -s 6 -d 0 -p cbr -e 210 -c 4 -i 5 -a 4 -x {10.1 4194304.1 4 ------- null}
- -t 0.136124 -s 6 -d 0 -p cbr -e 210 -c 4 -i 5 -a 4 -x {10.1 4194304.1 4 ------- null}
h -t 0.136124 -s 6 -d 0 -p cbr -e 210 -c 4 -i 5 -a 4 -x {10.1 4194304.1 -1 ------- null}
r -t 0.138364 -s 0 -d 1 -p cbr -e 210 -c 4 -i 3 -a 4 -x {10.1 4194304.1 3 ------- null}
h -t 0.145 -s 10 -d 15 -p cbr -e 210 -c 4 -i 8 -a 4 -x {10.1 4194304.1 6 ------- null}
r -t 0.145004 -s 14 -d 2 -p graft -e 80 -c 3 -i 6 -a 3 -x {3.0 2.0 -1 ------- null}
m -t 0.14500400000000002 -s 2 -n m2 -c red -h circle
+ -t 0.145004 -s 2 -d 0 -p graft -e 80 -c 3 -i 9 -a 3 -x {2.0 0.0 -1 ------- null}
- -t 0.145004 -s 2 -d 0 -p graft -e 80 -c 3 -i 9 -a 3 -x {2.0 0.0 -1 ------- null}
h -t 0.145004 -s 2 -d 0 -p graft -e 80 -c 3 -i 9 -a 3 -x {2.0 0.0 -1 ------- null}
r -t 0.145004 -s 15 -d 9 -p cbr -e 210 -c 4 -i 7 -a 4 -x {10.1 4194304.1 5 ------- null}
r -t 0.145004 -s 15 -d 8 -p cbr -e 210 -c 4 -i 7 -a 4 -x {10.1 4194304.1 5 ------- null}
r -t 0.145004 -s 15 -d 7 -p cbr -e 210 -c 4 -i 7 -a 4 -x {10.1 4194304.1 5 ------- null}
+ -t 0.145004 -s 7 -d 6 -p cbr -e 210 -c 4 -i 7 -a 4 -x {10.1 4194304.1 5 ------- null}
- -t 0.145004 -s 7 -d 6 -p cbr -e 210 -c 4 -i 7 -a 4 -x {10.1 4194304.1 5 ------- null}
h -t 0.145004 -s 7 -d 6 -p cbr -e 210 -c 4 -i 7 -a 4 -x {10.1 4194304.1 -1 ------- null}
r -t 0.147244 -s 6 -d 0 -p cbr -e 210 -c 4 -i 5 -a 4 -x {10.1 4194304.1 4 ------- null}
+ -t 0.147244 -s 0 -d 1 -p cbr -e 210 -c 4 -i 5 -a 4 -x {10.1 4194304.1 4 ------- null}
- -t 0.147244 -s 0 -d 1 -p cbr -e 210 -c 4 -i 5 -a 4 -x {10.1 4194304.1 4 ------- null}
h -t 0.147244 -s 0 -d 1 -p cbr -e 210 -c 4 -i 5 -a 4 -x {10.1 4194304.1 -1 ------- null}
m -t 0.14999999999999999 -s 4 -n m1 -c blue -h circle
r -t 0.155431 -s 2 -d 0 -p graft -e 80 -c 3 -i 9 -a 3 -x {2.0 0.0 -1 ------- null}
r -t 0.156124 -s 7 -d 6 -p cbr -e 210 -c 4 -i 7 -a 4 -x {10.1 4194304.1 5 ------- null}
+ -t 0.156124 -s 6 -d 0 -p cbr -e 210 -c 4 -i 7 -a 4 -x {10.1 4194304.1 5 ------- null}
- -t 0.156124 -s 6 -d 0 -p cbr -e 210 -c 4 -i 7 -a 4 -x {10.1 4194304.1 5 ------- null}
h -t 0.156124 -s 6 -d 0 -p cbr -e 210 -c 4 -i 7 -a 4 -x {10.1 4194304.1 -1 ------- null}
r -t 0.158364 -s 0 -d 1 -p cbr -e 210 -c 4 -i 5 -a 4 -x {10.1 4194304.1 4 ------- null}
h -t 0.165 -s 10 -d 15 -p cbr -e 210 -c 4 -i 10 -a 4 -x {10.1 4194304.1 7 ------- null}
r -t 0.165004 -s 15 -d 9 -p cbr -e 210 -c 4 -i 8 -a 4 -x {10.1 4194304.1 6 ------- null}
r -t 0.165004 -s 15 -d 8 -p cbr -e 210 -c 4 -i 8 -a 4 -x {10.1 4194304.1 6 ------- null}
r -t 0.165004 -s 15 -d 7 -p cbr -e 210 -c 4 -i 8 -a 4 -x {10.1 4194304.1 6 ------- null}
+ -t 0.165004 -s 7 -d 6 -p cbr -e 210 -c 4 -i 8 -a 4 -x {10.1 4194304.1 6 ------- null}
- -t 0.165004 -s 7 -d 6 -p cbr -e 210 -c 4 -i 8 -a 4 -x {10.1 4194304.1 6 ------- null}
h -t 0.165004 -s 7 -d 6 -p cbr -e 210 -c 4 -i 8 -a 4 -x {10.1 4194304.1 -1 ------- null}
r -t 0.167244 -s 6 -d 0 -p cbr -e 210 -c 4 -i 7 -a 4 -x {10.1 4194304.1 5 ------- null}
+ -t 0.167244 -s 0 -d 1 -p cbr -e 210 -c 4 -i 7 -a 4 -x {10.1 4194304.1 5 ------- null}
- -t 0.167244 -s 0 -d 1 -p cbr -e 210 -c 4 -i 7 -a 4 -x {10.1 4194304.1 5 ------- null}
h -t 0.167244 -s 0 -d 1 -p cbr -e 210 -c 4 -i 7 -a 4 -x {10.1 4194304.1 -1 ------- null}
+ -t 0.167244 -s 0 -d 2 -p cbr -e 210 -c 4 -i 7 -a 4 -x {10.1 4194304.1 5 ------- null}
- -t 0.167244 -s 0 -d 2 -p cbr -e 210 -c 4 -i 7 -a 4 -x {10.1 4194304.1 5 ------- null}
h -t 0.167244 -s 0 -d 2 -p cbr -e 210 -c 4 -i 7 -a 4 -x {10.1 4194304.1 -1 ------- null}
m -t 0.17499999999999999 -s 5 -n m1 -c blue -h circle
r -t 0.176124 -s 7 -d 6 -p cbr -e 210 -c 4 -i 8 -a 4 -x {10.1 4194304.1 6 ------- null}
+ -t 0.176124 -s 6 -d 0 -p cbr -e 210 -c 4 -i 8 -a 4 -x {10.1 4194304.1 6 ------- null}
- -t 0.176124 -s 6 -d 0 -p cbr -e 210 -c 4 -i 8 -a 4 -x {10.1 4194304.1 6 ------- null}
h -t 0.176124 -s 6 -d 0 -p cbr -e 210 -c 4 -i 8 -a 4 -x {10.1 4194304.1 -1 ------- null}
r -t 0.178364 -s 0 -d 1 -p cbr -e 210 -c 4 -i 7 -a 4 -x {10.1 4194304.1 5 ------- null}
r -t 0.178364 -s 0 -d 2 -p cbr -e 210 -c 4 -i 7 -a 4 -x {10.1 4194304.1 5 ------- null}
h -t 0.178364 -s 2 -d 14 -p cbr -e 210 -c 4 -i 7 -a 4 -x {10.1 4194304.1 5 ------- null}
h -t 0.185 -s 10 -d 15 -p cbr -e 210 -c 4 -i 11 -a 4 -x {10.1 4194304.1 8 ------- null}
r -t 0.185004 -s 15 -d 9 -p cbr -e 210 -c 4 -i 10 -a 4 -x {10.1 4194304.1 7 ------- null}
r -t 0.185004 -s 15 -d 8 -p cbr -e 210 -c 4 -i 10 -a 4 -x {10.1 4194304.1 7 ------- null}
r -t 0.185004 -s 15 -d 7 -p cbr -e 210 -c 4 -i 10 -a 4 -x {10.1 4194304.1 7 ------- null}
+ -t 0.185004 -s 7 -d 6 -p cbr -e 210 -c 4 -i 10 -a 4 -x {10.1 4194304.1 7 ------- null}
- -t 0.185004 -s 7 -d 6 -p cbr -e 210 -c 4 -i 10 -a 4 -x {10.1 4194304.1 7 ------- null}
h -t 0.185004 -s 7 -d 6 -p cbr -e 210 -c 4 -i 10 -a 4 -x {10.1 4194304.1 -1 ------- null}
r -t 0.187244 -s 6 -d 0 -p cbr -e 210 -c 4 -i 8 -a 4 -x {10.1 4194304.1 6 ------- null}
+ -t 0.187244 -s 0 -d 1 -p cbr -e 210 -c 4 -i 8 -a 4 -x {10.1 4194304.1 6 ------- null}
- -t 0.187244 -s 0 -d 1 -p cbr -e 210 -c 4 -i 8 -a 4 -x {10.1 4194304.1 6 ------- null}
h -t 0.187244 -s 0 -d 1 -p cbr -e 210 -c 4 -i 8 -a 4 -x {10.1 4194304.1 -1 ------- null}
+ -t 0.187244 -s 0 -d 2 -p cbr -e 210 -c 4 -i 8 -a 4 -x {10.1 4194304.1 6 ------- null}
- -t 0.187244 -s 0 -d 2 -p cbr -e 210 -c 4 -i 8 -a 4 -x {10.1 4194304.1 6 ------- null}
h -t 0.187244 -s 0 -d 2 -p cbr -e 210 -c 4 -i 8 -a 4 -x {10.1 4194304.1 -1 ------- null}
r -t 0.188364 -s 14 -d 2 -p cbr -e 210 -c 4 -i 7 -a 4 -x {10.1 4194304.1 5 ------- null}
r -t 0.196124 -s 7 -d 6 -p cbr -e 210 -c 4 -i 10 -a 4 -x {10.1 4194304.1 7 ------- null}
+ -t 0.196124 -s 6 -d 0 -p cbr -e 210 -c 4 -i 10 -a 4 -x {10.1 4194304.1 7 ------- null}
- -t 0.196124 -s 6 -d 0 -p cbr -e 210 -c 4 -i 10 -a 4 -x {10.1 4194304.1 7 ------- null}
h -t 0.196124 -s 6 -d 0 -p cbr -e 210 -c 4 -i 10 -a 4 -x {10.1 4194304.1 -1 ------- null}
r -t 0.198364 -s 0 -d 1 -p cbr -e 210 -c 4 -i 8 -a 4 -x {10.1 4194304.1 6 ------- null}
r -t 0.198364 -s 0 -d 2 -p cbr -e 210 -c 4 -i 8 -a 4 -x {10.1 4194304.1 6 ------- null}
h -t 0.198364 -s 2 -d 14 -p cbr -e 210 -c 4 -i 8 -a 4 -x {10.1 4194304.1 6 ------- null}
m -t 0.20000000000000001 -s 12 -n m1 -c blue -h circle
+ -t 0.2 -s 12 -d 11 -p graft -e 80 -c 3 -i 12 -a 3 -x {12.0 11.0 -1 ------- null}
- -t 0.2 -s 12 -d 11 -p graft -e 80 -c 3 -i 12 -a 3 -x {12.0 11.0 -1 ------- null}
h -t 0.2 -s 12 -d 11 -p graft -e 80 -c 3 -i 12 -a 3 -x {12.0 11.0 -1 ------- null}
h -t 0.205 -s 10 -d 15 -p cbr -e 210 -c 4 -i 13 -a 4 -x {10.1 4194304.1 9 ------- null}
r -t 0.205004 -s 15 -d 9 -p cbr -e 210 -c 4 -i 11 -a 4 -x {10.1 4194304.1 8 ------- null}
r -t 0.205004 -s 15 -d 8 -p cbr -e 210 -c 4 -i 11 -a 4 -x {10.1 4194304.1 8 ------- null}
r -t 0.205004 -s 15 -d 7 -p cbr -e 210 -c 4 -i 11 -a 4 -x {10.1 4194304.1 8 ------- null}
+ -t 0.205004 -s 7 -d 6 -p cbr -e 210 -c 4 -i 11 -a 4 -x {10.1 4194304.1 8 ------- null}
- -t 0.205004 -s 7 -d 6 -p cbr -e 210 -c 4 -i 11 -a 4 -x {10.1 4194304.1 8 ------- null}
h -t 0.205004 -s 7 -d 6 -p cbr -e 210 -c 4 -i 11 -a 4 -x {10.1 4194304.1 -1 ------- null}
r -t 0.207244 -s 6 -d 0 -p cbr -e 210 -c 4 -i 10 -a 4 -x {10.1 4194304.1 7 ------- null}
+ -t 0.207244 -s 0 -d 1 -p cbr -e 210 -c 4 -i 10 -a 4 -x {10.1 4194304.1 7 ------- null}
- -t 0.207244 -s 0 -d 1 -p cbr -e 210 -c 4 -i 10 -a 4 -x {10.1 4194304.1 7 ------- null}
h -t 0.207244 -s 0 -d 1 -p cbr -e 210 -c 4 -i 10 -a 4 -x {10.1 4194304.1 -1 ------- null}
+ -t 0.207244 -s 0 -d 2 -p cbr -e 210 -c 4 -i 10 -a 4 -x {10.1 4194304.1 7 ------- null}
- -t 0.207244 -s 0 -d 2 -p cbr -e 210 -c 4 -i 10 -a 4 -x {10.1 4194304.1 7 ------- null}
h -t 0.207244 -s 0 -d 2 -p cbr -e 210 -c 4 -i 10 -a 4 -x {10.1 4194304.1 -1 ------- null}
r -t 0.208364 -s 14 -d 2 -p cbr -e 210 -c 4 -i 8 -a 4 -x {10.1 4194304.1 6 ------- null}
r -t 0.210427 -s 12 -d 11 -p graft -e 80 -c 3 -i 12 -a 3 -x {12.0 11.0 -1 ------- null}
m -t 0.21042666666666668 -s 11 -n m2 -c red -h circle
+ -t 0.210427 -s 11 -d 9 -p graft -e 80 -c 3 -i 14 -a 3 -x {11.0 9.0 -1 ------- null}
- -t 0.210427 -s 11 -d 9 -p graft -e 80 -c 3 -i 14 -a 3 -x {11.0 9.0 -1 ------- null}
h -t 0.210427 -s 11 -d 9 -p graft -e 80 -c 3 -i 14 -a 3 -x {11.0 9.0 -1 ------- null}
r -t 0.216124 -s 7 -d 6 -p cbr -e 210 -c 4 -i 11 -a 4 -x {10.1 4194304.1 8 ------- null}
+ -t 0.216124 -s 6 -d 0 -p cbr -e 210 -c 4 -i 11 -a 4 -x {10.1 4194304.1 8 ------- null}
- -t 0.216124 -s 6 -d 0 -p cbr -e 210 -c 4 -i 11 -a 4 -x {10.1 4194304.1 8 ------- null}
h -t 0.216124 -s 6 -d 0 -p cbr -e 210 -c 4 -i 11 -a 4 -x {10.1 4194304.1 -1 ------- null}
r -t 0.218364 -s 0 -d 1 -p cbr -e 210 -c 4 -i 10 -a 4 -x {10.1 4194304.1 7 ------- null}
r -t 0.218364 -s 0 -d 2 -p cbr -e 210 -c 4 -i 10 -a 4 -x {10.1 4194304.1 7 ------- null}
h -t 0.218364 -s 2 -d 14 -p cbr -e 210 -c 4 -i 10 -a 4 -x {10.1 4194304.1 7 ------- null}
r -t 0.220853 -s 11 -d 9 -p graft -e 80 -c 3 -i 14 -a 3 -x {11.0 9.0 -1 ------- null}
m -t 0.22085333333333335 -s 9 -n m2 -c red -h circle
+ -t 0.220853 -s 9 -d 6 -p graft -e 80 -c 3 -i 15 -a 3 -x {9.0 6.0 -1 ------- null}
- -t 0.220853 -s 9 -d 6 -p graft -e 80 -c 3 -i 15 -a 3 -x {9.0 6.0 -1 ------- null}
h -t 0.220853 -s 9 -d 6 -p graft -e 80 -c 3 -i 15 -a 3 -x {9.0 6.0 -1 ------- null}
h -t 0.225 -s 10 -d 15 -p cbr -e 210 -c 4 -i 16 -a 4 -x {10.1 4194304.1 10 ------- null}
r -t 0.225004 -s 15 -d 9 -p cbr -e 210 -c 4 -i 13 -a 4 -x {10.1 4194304.1 9 ------- null}
r -t 0.225004 -s 15 -d 8 -p cbr -e 210 -c 4 -i 13 -a 4 -x {10.1 4194304.1 9 ------- null}
r -t 0.225004 -s 15 -d 7 -p cbr -e 210 -c 4 -i 13 -a 4 -x {10.1 4194304.1 9 ------- null}
+ -t 0.225004 -s 7 -d 6 -p cbr -e 210 -c 4 -i 13 -a 4 -x {10.1 4194304.1 9 ------- null}
- -t 0.225004 -s 7 -d 6 -p cbr -e 210 -c 4 -i 13 -a 4 -x {10.1 4194304.1 9 ------- null}
h -t 0.225004 -s 7 -d 6 -p cbr -e 210 -c 4 -i 13 -a 4 -x {10.1 4194304.1 -1 ------- null}
r -t 0.227244 -s 6 -d 0 -p cbr -e 210 -c 4 -i 11 -a 4 -x {10.1 4194304.1 8 ------- null}
+ -t 0.227244 -s 0 -d 1 -p cbr -e 210 -c 4 -i 11 -a 4 -x {10.1 4194304.1 8 ------- null}
- -t 0.227244 -s 0 -d 1 -p cbr -e 210 -c 4 -i 11 -a 4 -x {10.1 4194304.1 8 ------- null}
h -t 0.227244 -s 0 -d 1 -p cbr -e 210 -c 4 -i 11 -a 4 -x {10.1 4194304.1 -1 ------- null}
+ -t 0.227244 -s 0 -d 2 -p cbr -e 210 -c 4 -i 11 -a 4 -x {10.1 4194304.1 8 ------- null}
- -t 0.227244 -s 0 -d 2 -p cbr -e 210 -c 4 -i 11 -a 4 -x {10.1 4194304.1 8 ------- null}
h -t 0.227244 -s 0 -d 2 -p cbr -e 210 -c 4 -i 11 -a 4 -x {10.1 4194304.1 -1 ------- null}
r -t 0.228364 -s 14 -d 2 -p cbr -e 210 -c 4 -i 10 -a 4 -x {10.1 4194304.1 7 ------- null}
r -t 0.23128 -s 9 -d 6 -p graft -e 80 -c 3 -i 15 -a 3 -x {9.0 6.0 -1 ------- null}
m -t 0.23128000000000001 -s 6 -n m2 -c red -h circle
+ -t 0.23128 -s 6 -d 0 -p graft -e 80 -c 3 -i 17 -a 3 -x {6.0 0.0 -1 ------- null}
- -t 0.23128 -s 6 -d 0 -p graft -e 80 -c 3 -i 17 -a 3 -x {6.0 0.0 -1 ------- null}
h -t 0.23128 -s 6 -d 0 -p graft -e 80 -c 3 -i 17 -a 3 -x {6.0 0.0 -1 ------- null}
r -t 0.236124 -s 7 -d 6 -p cbr -e 210 -c 4 -i 13 -a 4 -x {10.1 4194304.1 9 ------- null}
+ -t 0.236124 -s 6 -d 0 -p cbr -e 210 -c 4 -i 13 -a 4 -x {10.1 4194304.1 9 ------- null}
- -t 0.236124 -s 6 -d 0 -p cbr -e 210 -c 4 -i 13 -a 4 -x {10.1 4194304.1 9 ------- null}
h -t 0.236124 -s 6 -d 0 -p cbr -e 210 -c 4 -i 13 -a 4 -x {10.1 4194304.1 -1 ------- null}
+ -t 0.236124 -s 6 -d 9 -p cbr -e 210 -c 4 -i 13 -a 4 -x {10.1 4194304.1 9 ------- null}
- -t 0.236124 -s 6 -d 9 -p cbr -e 210 -c 4 -i 13 -a 4 -x {10.1 4194304.1 9 ------- null}
h -t 0.236124 -s 6 -d 9 -p cbr -e 210 -c 4 -i 13 -a 4 -x {10.1 4194304.1 -1 ------- null}
r -t 0.238364 -s 0 -d 1 -p cbr -e 210 -c 4 -i 11 -a 4 -x {10.1 4194304.1 8 ------- null}
r -t 0.238364 -s 0 -d 2 -p cbr -e 210 -c 4 -i 11 -a 4 -x {10.1 4194304.1 8 ------- null}
h -t 0.238364 -s 2 -d 14 -p cbr -e 210 -c 4 -i 11 -a 4 -x {10.1 4194304.1 8 ------- null}
r -t 0.241707 -s 6 -d 0 -p graft -e 80 -c 3 -i 17 -a 3 -x {6.0 0.0 -1 ------- null}
h -t 0.245 -s 10 -d 15 -p cbr -e 210 -c 4 -i 18 -a 4 -x {10.1 4194304.1 11 ------- null}
r -t 0.245004 -s 15 -d 9 -p cbr -e 210 -c 4 -i 16 -a 4 -x {10.1 4194304.1 10 ------- null}
r -t 0.245004 -s 15 -d 8 -p cbr -e 210 -c 4 -i 16 -a 4 -x {10.1 4194304.1 10 ------- null}
r -t 0.245004 -s 15 -d 7 -p cbr -e 210 -c 4 -i 16 -a 4 -x {10.1 4194304.1 10 ------- null}
+ -t 0.245004 -s 7 -d 6 -p cbr -e 210 -c 4 -i 16 -a 4 -x {10.1 4194304.1 10 ------- null}
- -t 0.245004 -s 7 -d 6 -p cbr -e 210 -c 4 -i 16 -a 4 -x {10.1 4194304.1 10 ------- null}
h -t 0.245004 -s 7 -d 6 -p cbr -e 210 -c 4 -i 16 -a 4 -x {10.1 4194304.1 -1 ------- null}
r -t 0.247244 -s 6 -d 0 -p cbr -e 210 -c 4 -i 13 -a 4 -x {10.1 4194304.1 9 ------- null}
+ -t 0.247244 -s 0 -d 1 -p cbr -e 210 -c 4 -i 13 -a 4 -x {10.1 4194304.1 9 ------- null}
- -t 0.247244 -s 0 -d 1 -p cbr -e 210 -c 4 -i 13 -a 4 -x {10.1 4194304.1 9 ------- null}
h -t 0.247244 -s 0 -d 1 -p cbr -e 210 -c 4 -i 13 -a 4 -x {10.1 4194304.1 -1 ------- null}
+ -t 0.247244 -s 0 -d 2 -p cbr -e 210 -c 4 -i 13 -a 4 -x {10.1 4194304.1 9 ------- null}
- -t 0.247244 -s 0 -d 2 -p cbr -e 210 -c 4 -i 13 -a 4 -x {10.1 4194304.1 9 ------- null}
h -t 0.247244 -s 0 -d 2 -p cbr -e 210 -c 4 -i 13 -a 4 -x {10.1 4194304.1 -1 ------- null}
r -t 0.247244 -s 6 -d 9 -p cbr -e 210 -c 4 -i 13 -a 4 -x {10.1 4194304.1 9 ------- null}
+ -t 0.247244 -s 9 -d 11 -p cbr -e 210 -c 4 -i 13 -a 4 -x {10.1 4194304.1 9 ------- null}
- -t 0.247244 -s 9 -d 11 -p cbr -e 210 -c 4 -i 13 -a 4 -x {10.1 4194304.1 9 ------- null}
h -t 0.247244 -s 9 -d 11 -p cbr -e 210 -c 4 -i 13 -a 4 -x {10.1 4194304.1 -1 ------- null}
r -t 0.248364 -s 14 -d 2 -p cbr -e 210 -c 4 -i 11 -a 4 -x {10.1 4194304.1 8 ------- null}
r -t 0.256124 -s 7 -d 6 -p cbr -e 210 -c 4 -i 16 -a 4 -x {10.1 4194304.1 10 ------- null}
+ -t 0.256124 -s 6 -d 0 -p cbr -e 210 -c 4 -i 16 -a 4 -x {10.1 4194304.1 10 ------- null}
- -t 0.256124 -s 6 -d 0 -p cbr -e 210 -c 4 -i 16 -a 4 -x {10.1 4194304.1 10 ------- null}
h -t 0.256124 -s 6 -d 0 -p cbr -e 210 -c 4 -i 16 -a 4 -x {10.1 4194304.1 -1 ------- null}
+ -t 0.256124 -s 6 -d 9 -p cbr -e 210 -c 4 -i 16 -a 4 -x {10.1 4194304.1 10 ------- null}
- -t 0.256124 -s 6 -d 9 -p cbr -e 210 -c 4 -i 16 -a 4 -x {10.1 4194304.1 10 ------- null}
h -t 0.256124 -s 6 -d 9 -p cbr -e 210 -c 4 -i 16 -a 4 -x {10.1 4194304.1 -1 ------- null}
r -t 0.258364 -s 0 -d 1 -p cbr -e 210 -c 4 -i 13 -a 4 -x {10.1 4194304.1 9 ------- null}
r -t 0.258364 -s 0 -d 2 -p cbr -e 210 -c 4 -i 13 -a 4 -x {10.1 4194304.1 9 ------- null}
h -t 0.258364 -s 2 -d 14 -p cbr -e 210 -c 4 -i 13 -a 4 -x {10.1 4194304.1 9 ------- null}
r -t 0.258364 -s 9 -d 11 -p cbr -e 210 -c 4 -i 13 -a 4 -x {10.1 4194304.1 9 ------- null}
+ -t 0.258364 -s 11 -d 12 -p cbr -e 210 -c 4 -i 13 -a 4 -x {10.1 4194304.1 9 ------- null}
- -t 0.258364 -s 11 -d 12 -p cbr -e 210 -c 4 -i 13 -a 4 -x {10.1 4194304.1 9 ------- null}
h -t 0.258364 -s 11 -d 12 -p cbr -e 210 -c 4 -i 13 -a 4 -x {10.1 4194304.1 -1 ------- null}
h -t 0.265 -s 10 -d 15 -p cbr -e 210 -c 4 -i 19 -a 4 -x {10.1 4194304.1 12 ------- null}
r -t 0.265004 -s 15 -d 9 -p cbr -e 210 -c 4 -i 18 -a 4 -x {10.1 4194304.1 11 ------- null}
r -t 0.265004 -s 15 -d 8 -p cbr -e 210 -c 4 -i 18 -a 4 -x {10.1 4194304.1 11 ------- null}
r -t 0.265004 -s 15 -d 7 -p cbr -e 210 -c 4 -i 18 -a 4 -x {10.1 4194304.1 11 ------- null}
+ -t 0.265004 -s 7 -d 6 -p cbr -e 210 -c 4 -i 18 -a 4 -x {10.1 4194304.1 11 ------- null}
- -t 0.265004 -s 7 -d 6 -p cbr -e 210 -c 4 -i 18 -a 4 -x {10.1 4194304.1 11 ------- null}
h -t 0.265004 -s 7 -d 6 -p cbr -e 210 -c 4 -i 18 -a 4 -x {10.1 4194304.1 -1 ------- null}
r -t 0.267244 -s 6 -d 0 -p cbr -e 210 -c 4 -i 16 -a 4 -x {10.1 4194304.1 10 ------- null}
+ -t 0.267244 -s 0 -d 1 -p cbr -e 210 -c 4 -i 16 -a 4 -x {10.1 4194304.1 10 ------- null}
- -t 0.267244 -s 0 -d 1 -p cbr -e 210 -c 4 -i 16 -a 4 -x {10.1 4194304.1 10 ------- null}
h -t 0.267244 -s 0 -d 1 -p cbr -e 210 -c 4 -i 16 -a 4 -x {10.1 4194304.1 -1 ------- null}
+ -t 0.267244 -s 0 -d 2 -p cbr -e 210 -c 4 -i 16 -a 4 -x {10.1 4194304.1 10 ------- null}
- -t 0.267244 -s 0 -d 2 -p cbr -e 210 -c 4 -i 16 -a 4 -x {10.1 4194304.1 10 ------- null}
h -t 0.267244 -s 0 -d 2 -p cbr -e 210 -c 4 -i 16 -a 4 -x {10.1 4194304.1 -1 ------- null}
r -t 0.267244 -s 6 -d 9 -p cbr -e 210 -c 4 -i 16 -a 4 -x {10.1 4194304.1 10 ------- null}
+ -t 0.267244 -s 9 -d 11 -p cbr -e 210 -c 4 -i 16 -a 4 -x {10.1 4194304.1 10 ------- null}
- -t 0.267244 -s 9 -d 11 -p cbr -e 210 -c 4 -i 16 -a 4 -x {10.1 4194304.1 10 ------- null}
h -t 0.267244 -s 9 -d 11 -p cbr -e 210 -c 4 -i 16 -a 4 -x {10.1 4194304.1 -1 ------- null}
r -t 0.268364 -s 14 -d 2 -p cbr -e 210 -c 4 -i 13 -a 4 -x {10.1 4194304.1 9 ------- null}
r -t 0.269484 -s 11 -d 12 -p cbr -e 210 -c 4 -i 13 -a 4 -x {10.1 4194304.1 9 ------- null}
r -t 0.276124 -s 7 -d 6 -p cbr -e 210 -c 4 -i 18 -a 4 -x {10.1 4194304.1 11 ------- null}
+ -t 0.276124 -s 6 -d 0 -p cbr -e 210 -c 4 -i 18 -a 4 -x {10.1 4194304.1 11 ------- null}
- -t 0.276124 -s 6 -d 0 -p cbr -e 210 -c 4 -i 18 -a 4 -x {10.1 4194304.1 11 ------- null}
h -t 0.276124 -s 6 -d 0 -p cbr -e 210 -c 4 -i 18 -a 4 -x {10.1 4194304.1 -1 ------- null}
+ -t 0.276124 -s 6 -d 9 -p cbr -e 210 -c 4 -i 18 -a 4 -x {10.1 4194304.1 11 ------- null}
- -t 0.276124 -s 6 -d 9 -p cbr -e 210 -c 4 -i 18 -a 4 -x {10.1 4194304.1 11 ------- null}
h -t 0.276124 -s 6 -d 9 -p cbr -e 210 -c 4 -i 18 -a 4 -x {10.1 4194304.1 -1 ------- null}
r -t 0.278364 -s 0 -d 1 -p cbr -e 210 -c 4 -i 16 -a 4 -x {10.1 4194304.1 10 ------- null}
r -t 0.278364 -s 0 -d 2 -p cbr -e 210 -c 4 -i 16 -a 4 -x {10.1 4194304.1 10 ------- null}
h -t 0.278364 -s 2 -d 14 -p cbr -e 210 -c 4 -i 16 -a 4 -x {10.1 4194304.1 10 ------- null}
r -t 0.278364 -s 9 -d 11 -p cbr -e 210 -c 4 -i 16 -a 4 -x {10.1 4194304.1 10 ------- null}
+ -t 0.278364 -s 11 -d 12 -p cbr -e 210 -c 4 -i 16 -a 4 -x {10.1 4194304.1 10 ------- null}
- -t 0.278364 -s 11 -d 12 -p cbr -e 210 -c 4 -i 16 -a 4 -x {10.1 4194304.1 10 ------- null}
h -t 0.278364 -s 11 -d 12 -p cbr -e 210 -c 4 -i 16 -a 4 -x {10.1 4194304.1 -1 ------- null}
h -t 0.285 -s 10 -d 15 -p cbr -e 210 -c 4 -i 20 -a 4 -x {10.1 4194304.1 13 ------- null}
r -t 0.285004 -s 15 -d 9 -p cbr -e 210 -c 4 -i 19 -a 4 -x {10.1 4194304.1 12 ------- null}
r -t 0.285004 -s 15 -d 8 -p cbr -e 210 -c 4 -i 19 -a 4 -x {10.1 4194304.1 12 ------- null}
r -t 0.285004 -s 15 -d 7 -p cbr -e 210 -c 4 -i 19 -a 4 -x {10.1 4194304.1 12 ------- null}
+ -t 0.285004 -s 7 -d 6 -p cbr -e 210 -c 4 -i 19 -a 4 -x {10.1 4194304.1 12 ------- null}
- -t 0.285004 -s 7 -d 6 -p cbr -e 210 -c 4 -i 19 -a 4 -x {10.1 4194304.1 12 ------- null}
h -t 0.285004 -s 7 -d 6 -p cbr -e 210 -c 4 -i 19 -a 4 -x {10.1 4194304.1 -1 ------- null}
r -t 0.287244 -s 6 -d 0 -p cbr -e 210 -c 4 -i 18 -a 4 -x {10.1 4194304.1 11 ------- null}
+ -t 0.287244 -s 0 -d 1 -p cbr -e 210 -c 4 -i 18 -a 4 -x {10.1 4194304.1 11 ------- null}
- -t 0.287244 -s 0 -d 1 -p cbr -e 210 -c 4 -i 18 -a 4 -x {10.1 4194304.1 11 ------- null}
h -t 0.287244 -s 0 -d 1 -p cbr -e 210 -c 4 -i 18 -a 4 -x {10.1 4194304.1 -1 ------- null}
+ -t 0.287244 -s 0 -d 2 -p cbr -e 210 -c 4 -i 18 -a 4 -x {10.1 4194304.1 11 ------- null}
- -t 0.287244 -s 0 -d 2 -p cbr -e 210 -c 4 -i 18 -a 4 -x {10.1 4194304.1 11 ------- null}
h -t 0.287244 -s 0 -d 2 -p cbr -e 210 -c 4 -i 18 -a 4 -x {10.1 4194304.1 -1 ------- null}
r -t 0.287244 -s 6 -d 9 -p cbr -e 210 -c 4 -i 18 -a 4 -x {10.1 4194304.1 11 ------- null}
+ -t 0.287244 -s 9 -d 11 -p cbr -e 210 -c 4 -i 18 -a 4 -x {10.1 4194304.1 11 ------- null}
- -t 0.287244 -s 9 -d 11 -p cbr -e 210 -c 4 -i 18 -a 4 -x {10.1 4194304.1 11 ------- null}
h -t 0.287244 -s 9 -d 11 -p cbr -e 210 -c 4 -i 18 -a 4 -x {10.1 4194304.1 -1 ------- null}
r -t 0.288364 -s 14 -d 2 -p cbr -e 210 -c 4 -i 16 -a 4 -x {10.1 4194304.1 10 ------- null}
r -t 0.289484 -s 11 -d 12 -p cbr -e 210 -c 4 -i 16 -a 4 -x {10.1 4194304.1 10 ------- null}
r -t 0.296124 -s 7 -d 6 -p cbr -e 210 -c 4 -i 19 -a 4 -x {10.1 4194304.1 12 ------- null}
+ -t 0.296124 -s 6 -d 0 -p cbr -e 210 -c 4 -i 19 -a 4 -x {10.1 4194304.1 12 ------- null}
- -t 0.296124 -s 6 -d 0 -p cbr -e 210 -c 4 -i 19 -a 4 -x {10.1 4194304.1 12 ------- null}
h -t 0.296124 -s 6 -d 0 -p cbr -e 210 -c 4 -i 19 -a 4 -x {10.1 4194304.1 -1 ------- null}
+ -t 0.296124 -s 6 -d 9 -p cbr -e 210 -c 4 -i 19 -a 4 -x {10.1 4194304.1 12 ------- null}
- -t 0.296124 -s 6 -d 9 -p cbr -e 210 -c 4 -i 19 -a 4 -x {10.1 4194304.1 12 ------- null}
h -t 0.296124 -s 6 -d 9 -p cbr -e 210 -c 4 -i 19 -a 4 -x {10.1 4194304.1 -1 ------- null}
r -t 0.298364 -s 0 -d 1 -p cbr -e 210 -c 4 -i 18 -a 4 -x {10.1 4194304.1 11 ------- null}
r -t 0.298364 -s 0 -d 2 -p cbr -e 210 -c 4 -i 18 -a 4 -x {10.1 4194304.1 11 ------- null}
h -t 0.298364 -s 2 -d 14 -p cbr -e 210 -c 4 -i 18 -a 4 -x {10.1 4194304.1 11 ------- null}
r -t 0.298364 -s 9 -d 11 -p cbr -e 210 -c 4 -i 18 -a 4 -x {10.1 4194304.1 11 ------- null}
+ -t 0.298364 -s 11 -d 12 -p cbr -e 210 -c 4 -i 18 -a 4 -x {10.1 4194304.1 11 ------- null}
- -t 0.298364 -s 11 -d 12 -p cbr -e 210 -c 4 -i 18 -a 4 -x {10.1 4194304.1 11 ------- null}
h -t 0.298364 -s 11 -d 12 -p cbr -e 210 -c 4 -i 18 -a 4 -x {10.1 4194304.1 -1 ------- null}
h -t 0.3 -s 13 -d 14 -p cbr -e 210 -c 5 -i 21 -a 5 -x {13.1 4194304.1 0 ------- null}
m -t 0.29999999999999999 -s 13 -n send -c tan -h circle
h -t 0.305 -s 10 -d 15 -p cbr -e 210 -c 4 -i 22 -a 4 -x {10.1 4194304.1 14 ------- null}
r -t 0.305004 -s 15 -d 9 -p cbr -e 210 -c 4 -i 20 -a 4 -x {10.1 4194304.1 13 ------- null}
r -t 0.305004 -s 15 -d 8 -p cbr -e 210 -c 4 -i 20 -a 4 -x {10.1 4194304.1 13 ------- null}
r -t 0.305004 -s 15 -d 7 -p cbr -e 210 -c 4 -i 20 -a 4 -x {10.1 4194304.1 13 ------- null}
+ -t 0.305004 -s 7 -d 6 -p cbr -e 210 -c 4 -i 20 -a 4 -x {10.1 4194304.1 13 ------- null}
- -t 0.305004 -s 7 -d 6 -p cbr -e 210 -c 4 -i 20 -a 4 -x {10.1 4194304.1 13 ------- null}
h -t 0.305004 -s 7 -d 6 -p cbr -e 210 -c 4 -i 20 -a 4 -x {10.1 4194304.1 -1 ------- null}
r -t 0.307244 -s 6 -d 0 -p cbr -e 210 -c 4 -i 19 -a 4 -x {10.1 4194304.1 12 ------- null}
+ -t 0.307244 -s 0 -d 1 -p cbr -e 210 -c 4 -i 19 -a 4 -x {10.1 4194304.1 12 ------- null}